# vtk DataFile Version 2.0
fluid-openfoam
ASCII
DATASET UNSTRUCTURED_GRID
FIELD FieldData 1
TimeValue 1 1 float
1

POINTS 5828 float
-3 0 0 -2.85025 0 0 -2.70516 0 0
-2.56506 0 0 -2.42973 0 0 -2.29898 0 0
-2.17258 0 0 -2.05034 0 0 -1.93208 0 0
-1.8176 0 0 -1.70675 0 0 -1.59936 0 0
-1.49529 0 0 -1.3944 0 0 -1.29655 0 0
-1.20164 0 0 -1.10956 0 0 -1.02021 0 0
-0.933462 0 0 -0.849182 0 0 -0.767273 0 0
-0.687629 0 0 -0.610141 0 0 -0.534695 0 0
-0.461161 0 0 -0.389394 0 0 -0.31922 0 0
-0.250424 0 0 -0.182716 0 0 -0.115635 0 0
-0.0494006 0 0 -3 0.0668693 0 -2.85023 0.0668711 0
-2.70513 0.066876 0 -2.56502 0.0668837 0 -2.42968 0.0668939 0
-2.29892 0.0669065 0 -2.17251 0.0669214 0 -2.05026 0.0669387 0
-1.93198 0.0669583 0 -1.81749 0.0669805 0 -1.70662 0.0670055 0
-1.59921 0.0670334 0 -1.49512 0.0670645 0 -1.3942 0.0670993 0
-1.29633 0.0671381 0 -1.20139 0.0671814 0 -1.10928 0.067229 0
-1.0199 0.0672817 0 -0.933103 0.0673405 0 -0.848777 0.0674065 0
-0.766815 0.0674806 0 -0.687111 0.0675639 0 -0.609556 0.0676581 0
-0.534033 0.0677653 0 -0.460413 0.0678886 0 -0.388547 0.0680332 0
-0.318255 0.0682071 0 -0.249316 0.0684236 0 -0.181432 0.0687005 0
-0.114148 0.0690312 0 -0.0477052 0.06899 0 -3 0.133738 0
-2.8502 0.133742 0 -2.70507 0.133752 0 -2.56493 0.133767 0
-2.42956 0.133787 0 -2.29876 0.133812 0 -2.17232 0.133842 0
-2.05003 0.133876 0 -1.93171 0.133915 0 -1.81718 0.13396 0
-1.70626 0.134009 0 -1.59879 0.134065 0 -1.49464 0.134127 0
-1.39365 0.134196 0 -1.29571 0.134273 0 -1.20067 0.134359 0
-1.10846 0.134453 0 -1.01897 0.134557 0 -0.932047 0.134674 0
-0.84758 0.134804 0 -0.765458 0.13495 0 -0.685575 0.135113 0
-0.607818 0.135297 0 -0.532067 0.135504 0 -0.458189 0.135739 0
-0.386032 0.136006 0 -0.315405 0.136313 0 -0.246067 0.13666 0
-0.17771 0.137029 0 -0.109904 0.137355 0 -0.0430273 0.137594 0
-3 0.200606 0 -2.85016 0.200611 0 -2.70499 0.200626 0
-2.5648 0.200649 0 -2.42938 0.200679 0 -2.29854 0.200717 0
-2.17204 0.200761 0 -2.0497 0.200812 0 -1.93131 0.20087 0
-1.8167 0.200936 0 -1.70569 0.20101 0 -1.59814 0.201092 0
-1.49388 0.201184 0 -1.39278 0.201286 0 -1.2947 0.201399 0
-1.19951 0.201526 0 -1.10713 0.201665 0 -1.01745 0.201818 0
-0.930325 0.201989 0 -0.845624 0.202179 0 -0.763239 0.202392 0
-0.68306 0.202629 0 -0.604971 0.202894 0 -0.528846 0.203189 0
-0.45455 0.203517 0 -0.381926 0.203882 0 -0.310782 0.204284 0
-0.24086 0.204717 0 -0.171847 0.205157 0 -0.103365 0.205548 0
-0.0360351 0.205806 0 -3 0.267472 0 -2.8501 0.267479 0
-2.70487 0.267498 0 -2.56462 0.267529 0 -2.42915 0.267569 0
-2.29823 0.267618 0 -2.17166 0.267676 0 -2.04923 0.267744 0
-1.93075 0.26782 0 -1.81604 0.267907 0 -1.70492 0.268004 0
-1.59724 0.268111 0 -1.49283 0.268231 0 -1.39157 0.268365 0
-1.29331 0.268512 0 -1.19792 0.268676 0 -1.10531 0.268857 0
-1.01538 0.269055 0 -0.927965 0.269275 0 -0.842944 0.26952 0
-0.760202 0.269793 0 -0.679623 0.270094 0 -0.601086 0.270427 0
-0.524462 0.270794 0 -0.449609 0.271196 0 -0.376368 0.271631 0
-0.304557 0.272095 0 -0.23393 0.272574 0 -0.164177 0.273041 0
-0.0949834 0.273437 0 -0.0272145 0.273679 0 -3 0.334335 0
-2.85003 0.334344 0 -2.70472 0.334368 0 -2.5644 0.334405 0
-2.42885 0.334455 0 -2.29784 0.334516 0 -2.17118 0.334588 0
-2.04865 0.334671 0 -1.93005 0.334765 0 -1.81521 0.33487 0
-1.70395 0.334988 0 -1.5961 0.33512 0 -1.49152 0.335266 0
-1.39005 0.335428 0 -1.29156 0.335607 0 -1.19592 0.335805 0
-1.10302 0.336023 0 -1.01277 0.336262 0 -0.925 0.336526 0
-0.839584 0.336818 0 -0.756399 0.337141 0 -0.675328 0.337496 0
-0.596243 0.337884 0 -0.519014 0.338306 0 -0.443498 0.338759 0
-0.369535 0.339238 0 -0.296954 0.339733 0 -0.225545 0.340225 0
-0.15503 0.340683 0 -0.0851511 0.341051 0 -0.0169837 0.341264 0
-3 0.401196 0 -2.84994 0.401206 0 -2.70455 0.401234 0
-2.56414 0.401278 0 -2.42849 0.401337 0 -2.29738 0.401409 0
-2.17061 0.401493 0 -2.04796 0.40159 0 -1.92923 0.4017 0
-1.81423 0.401823 0 -1.7028 0.401961 0 -1.59476 0.402114 0
-1.48995 0.402284 0 -1.38824 0.402473 0 -1.28948 0.402681 0
-1.19353 0.40291 0 -1.10029 0.403161 0 -1.00966 0.403434 0
-0.921477 0.403735 0 -0.835595 0.404066 0 -0.751894 0.404429 0
-0.670249 0.404826 0 -0.590534 0.405255 0 -0.512615 0.405714 0
-0.436353 0.406198 0 -0.361601 0.406698 0 -0.288199 0.407199 0
-0.215978 0.407678 0 -0.144712 0.408104 0 -0.0742092 0.408428 0
-0.0056981 0.408607 0 -3 0.468052 0 -2.84984 0.468063 0
-2.70435 0.468096 0 -2.56383 0.468146 0 -2.42807 0.468213 0
-2.29685 0.468295 0 -2.16996 0.468391 0 -2.04717 0.468501 0
-1.92828 0.468625 0 -1.81311 0.468765 0 -1.70147 0.468921 0
-1.59321 0.469094 0 -1.48816 0.469285 0 -1.38617 0.469496 0
-1.2871 0.469729 0 -1.1908 0.469985 0 -1.09718 0.470263 0
-1.00612 0.470565 0 -0.917461 0.470895 0 -0.831052 0.471257 0
-0.746771 0.471651 0 -0.66449 0.472076 0 -0.584076 0.472532 0
-0.5054 0.473013 0 -0.428335 0.473511 0 -0.352747 0.474013 0
-0.278504 0.474501 0 -0.205476 0.474951 0 -0.133499 0.475333 0
-0.0624488 0.475608 0 0.00634644 0.475752 0 -3 0.534903 0
-2.84973 0.534916 0 -2.70413 0.534952 0 -2.5635 0.535009 0
-2.42762 0.535083 0 -2.29627 0.535174 0 -2.16924 0.53528 0
-2.04629 0.535402 0 -1.92722 0.53554 0 -1.81185 0.535694 0
-1.7 0.535866 0 -1.59149 0.536056 0 -1.48617 0.536265 0
-1.38388 0.536495 0 -1.28447 0.536747 0 -1.18779 0.537024 0
-1.09375 0.537325 0 -1.00223 0.537649 0 -0.913041 0.538001 0
-0.826052 0.538385 0 -0.74114 0.538798 0 -0.658172 0.539242 0
-0.577008 0.539711 0 -0.497529 0.5402 0 -0.419618 0.540698 0
-0.343167 0.541189 0 -0.268076 0.541653 0 -0.194263 0.542067 0
-0.121628 0.542401 0 -0.0501113 0.542627 0 0.0189096 0.54274 0
-3 0.601749 0 -2.84961 0.601763 0 -2.70389 0.601803 0
-2.56313 0.601864 0 -2.42712 0.601945 0 -2.29564 0.602044 0
-2.16845 0.602159 0 -2.04533 0.602292 0 -1.92607 0.602441 0
-1.81049 0.602609 0 -1.6984 0.602793 0 -1.58963 0.602997 0
-1.48402 0.603221 0 -1.3814 0.603466 0 -1.28163 0.603734 0
-1.18455 0.604027 0 -1.09006 0.604343 0 -0.998039 0.604682 0
-0.908307 0.605049 0 -0.82071 0.605444 0 -0.735127 0.605868 0
-0.651431 0.606318 0 -0.56949 0.60679 0 -0.489177 0.607275 0
-0.410397 0.607762 0 -0.333068 0.608234 0 -0.25713 0.60867 0
-0.182553 0.609046 0 -0.109306 0.609338 0 -0.0373902 0.609522 0
0.0318058 0.609606 0 -3 0.668588 0 -2.84949 0.668603 0
-2.70364 0.668646 0 -2.56275 0.668712 0 -2.4266 0.668799 0
-2.29497 0.668905 0 -2.16762 0.669028 0 -2.04431 0.66917 0
-1.92485 0.66933 0 -1.80904 0.669507 0 -1.6967 0.669702 0
-1.58766 0.669916 0 -1.48173 0.670152 0 -1.37877 0.670408 0
-1.27861 0.670688 0 -1.18111 0.670992 0 -1.08616 0.671317 0
-0.993634 0.671663 0 -0.903344 0.672035 0 -0.815131 0.672433 0
-0.728864 0.672857 0 -0.644428 0.673303 0 -0.561696 0.673766 0
-0.480543 0.674238 0 -0.400888 0.674705 0 -0.322676 0.675153 0
-0.245889 0.675562 0 -0.170551 0.675908 0 -0.0967109 0.676169 0
-0.0244364 0.676322 0 0.0448991 0.676385 0 -3 0.735421 0
-2.84935 0.735437 0 -2.70338 0.735482 0 -2.56235 0.735552 0
-2.42606 0.735644 0 -2.29428 0.735756 0 -2.16675 0.735886 0
-2.04325 0.736035 0 -1.92357 0.736202 0 -1.80752 0.736387 0
-1.69493 0.736591 0 -1.58559 0.736814 0 -1.47934 0.737057 0
-1.37602 0.737321 0 -1.27548 0.737607 0 -1.17755 0.737916 0
-1.08213 0.738244 0 -0.989094 0.738591 0 -0.898248 0.73896 0
-0.809426 0.739352 0 -0.722493 0.739765 0 -0.637332 0.740196 0
-0.55382 0.74064 0 -0.471844 0.741088 0 -0.391329 0.74153 0
-0.312242 0.741951 0 -0.234598 0.742335 0 -0.158475 0.742664 0
-0.0840103 0.742912 0 -0.0113675 0.743054 0 0.0580939 0.743105 0
-3 0.802245 0 -2.84922 0.802262 0 -2.70311 0.80231 0
-2.56195 0.802383 0 -2.42551 0.802479 0 -2.29357 0.802596 0
-2.16586 0.802732 0 -2.04215 0.802886 0 -1.92225 0.803059 0
-1.80596 0.80325 0 -1.6931 0.803459 0 -1.58346 0.803687 0
-1.47689 0.803935 0 -1.37321 0.804203 0 -1.27227 0.80449 0
-1.17392 0.804799 0 -1.07804 0.805124 0 -0.984506 0.805464 0
-0.893122 0.805823 0 -0.803716 0.8062 0 -0.716154 0.806593 0
-0.63031 0.806999 0 -0.546065 0.807413 0 -0.463318 0.807828 0
-0.381994 0.808234 0 -0.302064 0.808623 0 -0.223562 0.808985 0
-0.146595 0.809308 0 -0.0713985 0.809571 0 0.00171133 0.809734 0
0.071329 0.809789 0 -3 0.869061 0 -2.84909 0.869079 0
-2.70284 0.869129 0 -2.56155 0.869205 0 -2.42496 0.869304 0
-2.29285 0.869424 0 -2.16496 0.869564 0 -2.04105 0.869723 0
-1.92092 0.8699 0 -1.80438 0.870095 0 -1.69124 0.870307 0
-1.58131 0.870537 0 -1.47441 0.870786 0 -1.37037 0.871053 0
-1.26905 0.871338 0 -1.17028 0.871641 0 -1.07396 0.871957 0
-0.979956 0.872284 0 -0.888069 0.872625 0 -0.798124 0.87298 0
-0.709987 0.873344 0 -0.623528 0.873716 0 -0.538637 0.874089 0
-0.455216 0.874459 0 -0.373183 0.874818 0 -0.292502 0.875162 0
-0.213189 0.875491 0 -0.135335 0.875807 0 -0.0592164 0.876109 0
0.0146501 0.876356 0 0.0845714 0.876457 0 -3 0.935868 0
-2.84896 0.935887 0 -2.70258 0.935938 0 -2.56115 0.936016 0
-2.42442 0.936118 0 -2.29214 0.936241 0 -2.16406 0.936383 0
-2.03995 0.936545 0 -1.91959 0.936724 0 -1.80281 0.93692 0
-1.68939 0.937133 0 -1.57916 0.937363 0 -1.47194 0.937609 0
-1.36756 0.937872 0 -1.26587 0.93815 0 -1.1667 0.938443 0
-1.06996 0.938745 0 -0.975527 0.939053 0 -0.883186 0.93937 0
-0.792766 0.939695 0 -0.704131 0.940023 0 -0.617157 0.940351 0
-0.53174 0.940674 0 -0.447789 0.940986 0 -0.365218 0.941282 0
-0.283976 0.941559 0 -0.204044 0.94182 0 -0.125448 0.942078 0
-0.0483854 0.942348 0 0.0265409 0.942597 0 0.0978077 0.94312 0
-3 1.00267 0 -2.84883 1.00268 0 -2.70233 1.00274 0
-2.56077 1.00282 0 -2.42389 1.00292 0 -2.29144 1.00304 0
-2.16318 1.00319 0 -2.03886 1.00335 0 -1.91828 1.00353 0
-1.80124 1.00373 0 -1.68756 1.00394 0 -1.57703 1.00417 0
-1.4695 1.00441 0 -1.36479 1.00466 0 -1.26274 1.00493 0
-1.1632 1.00521 0 -1.06608 1.00549 0 -0.971254 1.00577 0
-0.878514 1.00606 0 -0.787687 1.00635 0 -0.698649 1.00664 0
-0.611283 1.00691 0 -0.525494 1.00718 0 -0.441201 1.00742 0
-0.358334 1.00764 0 -0.276846 1.00782 0 -0.19672 1.00796 0
-0.117982 1.00807 0 -0.0408053 1.0081 0 0.0341536 1.00802 0
0.107765 1.00813 0 -3 0 1 -2.85025 0 1
-2.70516 0 1 -2.56506 0 1 -2.42973 0 1
-2.29898 0 1 -2.17258 0 1 -2.05034 0 1
[...]
CELL_DATA 2790
FIELD FieldData 10
alpha.water 1 2790 float
0.999618 0.999613 0.999612 0.999612 0.999612 0.999619 0.999652 0.99968 0.999627
0.999627 0.999627 0.999762 0.999943 0.999974 0.999972 0.999974 0.999977 0.999977
0.99998 0.999981 0.999984 0.999985 0.99998 0.999973 0.999965 0.999895 0.967845
0.94384 0.9438 0.95069 0.999619 0.999616 0.999613 0.999614 0.999618 0.99962
0.999621 0.999706 0.999709 0.999711 0.999662 0.999731 0.999732 0.999751 0.999932
0.999975 0.999977 0.999974 0.999976 0.99998 0.999985 0.999986 0.999976 0.99996
0.999965 0.999971 0.99726 0.992401 0.999999 1 0.999622 0.999641 0.99964
0.999629 0.999635 0.99968 0.999688 0.999695 0.999711 0.999714 0.999709 0.999714
0.99973 0.999795 0.999935 0.999965 0.999969 0.999971 0.99997 0.999976 0.999981
0.999986 0.99998 0.999959 0.99996 0.99997 0.999971 0.999999 0.999996 1
0.999645 0.999682 0.999687 0.999684 0.999691 0.999686 0.999693 0.999707 0.999709
0.99971 0.99973 0.99973 0.999732 0.999741 0.999854 0.999946 0.999952 0.999964
0.999965 0.999975 0.999985 0.999985 0.999977 0.999934 0.999921 0.999926 0.999933
0.999982 0.999994 0.999999 0.999646 0.99965 0.999588 0.999611 0.999648 0.999626
0.999616 0.999649 0.999702 0.999721 0.999721 0.999724 0.999669 0.999699 0.999811
0.999891 0.999926 0.999958 0.99996 0.999963 0.999983 0.999945 0.999911 0.999907
0.99991 0.999917 0.99993 0.999936 0.999987 1 0.999579 0.999579 0.999579
0.999579 0.999581 0.999579 0.999585 0.999672 0.999696 0.99969 0.999653 0.999656
0.999664 0.999705 0.999817 0.999871 0.999913 0.999936 0.999943 0.999893 0.999883
0.999888 0.999885 0.999896 0.999913 0.999927 0.999936 0.999932 0.999998 1.00001
0.99959 0.999581 0.999579 0.99959 0.999607 0.999585 0.999581 0.999585 0.999581
0.999584 0.999684 0.999668 0.999677 0.999724 0.999842 0.999855 0.99987 0.99984
0.999808 0.999819 0.999843 0.999902 0.999895 0.999911 0.99993 0.999944 0.999931
0.999941 0.999983 1.00001 0.999653 0.999662 0.999635 0.999662 0.999671 0.999661
0.999626 0.999613 0.999657 0.999664 0.999716 0.999754 0.999751 0.999761 0.999771
0.999766 0.999774 0.999796 0.999806 0.999796 0.999853 0.999945 0.999919 0.999931
0.999945 0.99997 0.999951 0.999993 1 1.00001 0.999657 0.999662 0.99965
0.99967 0.999675 0.999672 0.99968 0.999675 0.999691 0.999706 0.999746 0.999734
0.999674 0.999693 0.999715 0.999826 0.999874 0.999785 0.999828 0.999848 0.999921
0.999932 0.999936 0.999957 0.99997 0.99997 0.999959 0.999987 1 1
0.999616 0.999633 0.999584 0.999635 0.999646 0.999625 0.999659 0.99969 0.999679
0.999678 0.999605 0.999584 0.999599 0.999736 0.99972 0.99978 0.999915 0.999864
0.999911 0.999871 0.999882 0.999951 0.999874 0.999955 0.999975 0.999959 0.999969
0.999986 1 1 0.999566 0.999505 0.999504 0.999501 0.999504 0.999501
0.999624 0.999565 0.999511 0.999511 0.999511 0.999564 0.999652 0.99985 0.999943
0.999927 0.999928 0.999964 0.999952 0.999963 0.999884 0.999861 0.999873 0.999939
0.999977 0.999986 0.999951 0.999995 1 1 0.999502 0.999504 0.999502
0.999504 0.999501 0.999506 0.999514 0.999575 0.999529 0.999511 0.999655 0.999838
0.999987 0.999994 0.999992 0.999994 0.999996 0.999991 1 0.999997 0.99986
0.999872 0.999899 0.999984 0.999945 0.999994 1.00001 1 1 1
0.999598 0.999569 0.999593 0.999577 0.999613 0.99962 0.999717 0.99981 0.999792
0.999904 0.999954 0.999976 0.999989 0.999981 0.999998 0.999991 1 1
0.999988 0.99999 0.999907 0.999919 1 1 0.999994 0.999989 1.00001
1.00001 1.00001 1 0.999807 0.999808 0.999808 0.99981 0.999808 0.99981
0.999834 0.999839 0.999879 0.999922 0.99994 0.999957 0.999976 0.99999 0.999997
0.999983 0.999994 1 1 1 1 1 1 1
1 1.00001 1.00001 1.00003 1.00001 1.00001 0.999808 0.999807 0.999808
0.999808 0.99981 0.999806 0.999807 0.999834 0.999839 0.999879 0.999905 0.999909
0.999951 0.999967 0.999987 0.999769 1 1 1 1 1.00001
1.00001 1 1.00001 1.00002 1 1.00003 1.00002 1.00002 1.00006
6.22317e-42 3.48363e-42 9.1785e-43 0 0 0 0 0 0
0 0 0 0 0 0 0 0 0
0 0 0 0 0 0 0 0 0
0 0 0 2.54196e-38 1.58976e-39 3.09771e-41 3.81153e-43 0 0
0 0 0 0 0 0 0 0 0
0 0 0 0 0 0 0 0 0
0 0 0 0 0 0 2.88765e-35 7.74191e-36 7.12101e-36
2.70205e-39 1.08741e-42 9.80909e-45 0 0 0 0 0 0
0 0 0 0 0 0 0 0 0
0 0 0 0 0 0 0 0 0
1.95485e-32 3.41466e-32 1.41072e-32 1.32423e-35 5.46592e-39 3.46849e-41 8.12753e-44 0 0
1.4013e-45 1.4013e-45 1.4013e-45 0 0 0 0 0 0
0 0 0 0 0 0 0 0 0
0 0 0 4.41713e-30 6.61591e-29 2.09769e-29 2.89014e-32 1.71787e-35 7.77203e-38
2.04618e-40 5.91348e-43 2.8026e-45 1.65073e-42 1.34104e-42 7.28675e-43 2.18603e-43 2.8026e-44 1.4013e-45
0 0 0 0 0 0 0 0 0
0 0 0 0 0 0 2.32167e-32 5.9667e-26 2.50382e-26
1.10726e-29 3.5033e-32 1.289e-34 3.7351e-37 1.20926e-39 5.03907e-42 1.45084e-39 8.84411e-40 3.73042e-40
8.81305e-41 9.46577e-42 4.72238e-43 9.80909e-45 0 0 0 0 0
0 0 0 0 0 0 0 0 0
1.5594e-32 4.41485e-23 2.92597e-23 1.07212e-26 4.78587e-29 1.64916e-31 5.27024e-34 1.93095e-36 8.2462e-39
8.59192e-37 4.17038e-37 1.38676e-37 2.66837e-38 2.55742e-39 1.31418e-40 3.26783e-42 2.10195e-44 0
0 0 0 0 0 0 0 0 0
0 0 0 1.558e-32 3.79519e-20 3.13593e-20 8.43769e-24 4.65344e-26 1.64869e-28
5.93657e-31 2.46526e-33 1.15483e-35 3.55345e-34 1.43803e-34 3.88807e-35 6.4215e-36 5.7655e-37 3.07949e-38
8.56369e-40 7.02611e-42 3.50325e-44 0 0 0 0 0 0
0 0 0 0 0 0 8.33525e-19 8.13234e-18 2.85204e-17
5.24345e-21 3.37466e-23 1.30342e-25 5.40098e-28 2.50698e-30 1.2934e-32 9.38404e-32 3.73265e-32 8.6117e-33
1.27095e-33 1.09063e-34 6.03465e-36 1.84573e-37 1.85966e-39 1.5277e-41 8.4218e-43 2.38221e-44 0
0 0 0 0 0 0 0 0 0
1.93375e-15 4.02126e-15 3.48514e-15 2.50967e-18 1.88189e-20 8.31522e-23 4.0874e-25 2.11472e-27 1.20925e-29
1.09848e-29 7.49277e-30 1.54282e-30 2.08401e-31 1.72438e-32 9.86425e-34 3.27052e-35 3.91337e-37 6.34971e-39
4.33161e-40 1.26761e-41 1.68156e-44 0 0 0 0 0 0
0 0 0 8.88948e-13 1.50139e-12 7.3686e-14 9.29033e-16 8.10013e-18 4.44956e-20
2.60484e-22 1.42829e-23 3.53651e-25 7.28408e-27 1.25001e-27 2.25951e-28 2.8166e-29 2.27099e-30 1.34466e-31
4.75992e-33 6.6229e-35 1.92004e-36 1.40695e-37 3.7481e-39 1.34805e-42 2.8026e-45 0 0
0 0 0 0 0 0 1.9741e-10 3.77004e-10 1.96883e-11
2.71185e-13 2.75523e-15 3.62213e-16 3.35699e-18 2.52843e-20 1.90104e-22 2.1373e-24 1.72705e-25 2.69225e-26
3.0996e-27 2.47504e-28 1.52285e-29 5.64357e-31 9.18232e-33 4.14734e-34 3.32852e-35 7.17972e-37 7.51797e-41
6.05361e-43 4.2039e-45 0 0 0 0 0 0 0
2.68396e-08 5.80444e-08 7.54096e-07 8.12376e-11 6.2719e-13 5.48723e-15 7.72918e-16 6.94538e-18 5.51573e-20
4.8244e-22 1.96761e-23 2.50981e-24 2.64716e-25 2.14445e-26 1.39275e-27 5.29153e-29 1.0296e-30 7.03192e-32
6.21825e-33 7.93553e-35 1.49084e-38 1.15732e-40 7.70714e-43 4.2039e-45 0 0 0
0 0 0 0.000163706 0.000223698 2.21699e-05 6.51823e-09 7.22147e-11 6.664e-13
5.89457e-15 6.79202e-16 5.56366e-18 4.63784e-20 1.49071e-21 1.58225e-22 1.57813e-23 1.34712e-24 9.52236e-26
3.65551e-27 8.86275e-29 9.45818e-30 9.50646e-31 2.51449e-33 2.71723e-36 2.04573e-38 1.3141e-40 7.70714e-43
4.2039e-45 0 0 0 0 0 0.00486083 0.000860818 2.90915e-07
3.31505e-09 3.29553e-11 2.81449e-13 2.68281e-15 5.48042e-16 5.65814e-18 3.97502e-19 5.38655e-20 6.62196e-21
6.64939e-22 5.88201e-23 4.57267e-24 1.72546e-25 1.24838e-27 1.74459e-29 5.56364e-29 4.95092e-32 6.18837e-34
4.74659e-36 2.90712e-38 1.58341e-40 8.3097e-43 3.64338e-44 0 0 0 0
0.999779 0.999634 0.999646 0.999652 0.999631 0.999557 0.993827 0.976451 0.944694
0.896998 0.837846 0.773961 0.713868 0.664296 0.626674 0.620046 0.665886 0.759153
0.87945 1 1 1 1.00002 1.00001 1 1.00005 1.00003
1.00001 1.00004 1.00009 0.930205 0.751489 0.747563 0.72747 0.668824 0.576394
0.466854 0.356254 0.258244 0.172075 0.104288 0.0534654 0.0149217 2.95977e-05 2.7317e-05
5.12168e-05 0.00624225 0.0332639 0.0977922 0.236864 0.528073 0.910137 1 1
1.00004 1.00006 1.00001 1.00001 1.00005 1.00003 0.2318 0.0598409 0.0585711
0.0458704 0.0134869 3.96356e-11 3.87619e-11 2.95391e-10 7.76194e-09 1.85613e-07 3.18529e-06 1.67492e-05
1.92435e-05 3.29527e-05 3.08508e-05 3.8512e-05 6.95199e-05 0.000131352 0.000294851 0.000226034 0.00936491
0.130432 0.535168 0.998248 1.00004 1.00001 1.00001 1.00003 1.00004 1.00003
3.69792e-19 3.66344e-19 2.8945e-17 2.06276e-15 8.96445e-14 2.8288e-12 6.46903e-11 1.03743e-09 1.22823e-08
3.00446e-07 5.46559e-06 1.73658e-06 6.8136e-06 1.92437e-05 6.45755e-05 0.000571277 0.000887577 0.000711304
0.000226036 0.000157482 7.20425e-05 0.000181153 0.0201297 0.307204 0.884137 0.999984 1.00001
1.00002 1.00004 1.00005 3.66344e-19 2.39322e-17 1.18538e-15 3.49618e-14 6.88185e-13 8.5192e-12
3.45428e-11 2.69357e-10 5.34117e-09 3.66492e-08 8.70363e-08 4.49918e-07 1.73653e-06 6.81314e-06 0.000254254
0.000960764 0.000966985 0.000960764 0.000709946 7.2043e-05 1.32942e-05 3.94273e-05 0.000138534 0.000625521
0.176763 0.741078 0.999829 1.00001 1.00003 1.00003 2.39823e-18 4.78665e-17 1.98681e-15
4.66382e-14 7.1607e-13 7.3926e-12 4.73881e-11 1.35263e-10 4.73886e-10 2.71376e-09 1.59615e-08 8.70363e-08
4.49916e-07 2.3769e-06 1.31924e-05 0.00049713 0.000960764 0.000966985 0.000952821 0.000512149 5.43976e-06
1.32941e-05 3.94194e-05 0.000138388 0.000625107 0.0847126 0.572228 0.999573 1.00001 1.00003
4.9505e-18 8.25102e-17 3.20131e-15 6.51475e-14 9.88266e-13 1.02754e-11 7.84601e-11 4.16249e-10 1.03751e-09
2.05644e-09 7.59944e-09 4.15426e-08 2.38308e-07 1.33306e-06 7.25992e-06 9.77552e-05 0.000966985 0.000952821
0.000942271 0.000335146 1.40114e-06 3.80963e-06 1.06459e-05 3.08662e-05 9.63767e-05 0.000345688 0.0453484
0.382772 0.9207 1.00001 5.85413e-18 7.38546e-17 2.97115e-15 6.48396e-14 1.01823e-12 1.09741e-11
8.49225e-11 4.81236e-10 1.43997e-09 2.39079e-09 7.89199e-09 4.31844e-08 2.51913e-07 1.42152e-06 7.58873e-06
9.01274e-05 0.000872126 0.000942271 0.000557531 2.23328e-07 2.3443e-07 5.5929e-07 1.46011e-06 3.93079e-06
1.09644e-05 3.22107e-05 0.000103158 0.00378076 0.204082 0.575506 3.79354e-18 5.71849e-17 2.42786e-15
5.82648e-14 9.50196e-13 1.07824e-11 8.6329e-11 4.28057e-10 8.78897e-10 2.15032e-09 9.39403e-09 5.70171e-08
3.4403e-07 1.92442e-06 9.8738e-06 0.000170758 0.000753413 0.000591886 2.23328e-07 4.30236e-08 2.20674e-08
4.7773e-08 1.22735e-07 3.28295e-07 9.0665e-07 2.58634e-06 7.63876e-06 2.36824e-05 8.14239e-05 0.0214354
2.1903e-18 4.24014e-17 1.84604e-15 4.59319e-14 7.65467e-13 8.80796e-12 6.39573e-11 2.37913e-10 3.84408e-10
1.64344e-09 1.09212e-08 7.26118e-08 4.42627e-07 2.41185e-06 3.3561e-05 0.000182859 0.00016482 1.86699e-06
4.30236e-08 2.20674e-08 1.01237e-09 2.31552e-09 6.05749e-09 1.66769e-08 4.81809e-08 1.45142e-07 4.56604e-07
1.48782e-06 5.04463e-06 1.80793e-05 1.15515e-18 2.84946e-17 1.20962e-15 2.94395e-14 4.72489e-13 4.9995e-12
3.22929e-11 1.10084e-10 2.3593e-10 1.30098e-09 9.13972e-09 5.91856e-08 3.38398e-07 3.04209e-06 2.88249e-05
3.6132e-05 3.55332e-05 3.91673e-05 9.50087e-07 1.01237e-09 1.08696e-11 1.51405e-11 1.99809e-11 1.36263e-11
8.27824e-15 -8.93172e-13 -1.03995e-11 -2.897e-11 -1.07359e-10 -4.46591e-10 6.01661e-19 1.58128e-17 6.61431e-16
1.58407e-14 2.47418e-13 2.50454e-12 1.58961e-11 6.22854e-11 1.25651e-10 7.01085e-10 4.83668e-09 2.99869e-08
1.60527e-07 7.27108e-07 2.72851e-06 1.49264e-05 4.21062e-05 3.96625e-05 2.28375e-06 1.08696e-11 1.10981e-11
1.08696e-11 1.36264e-11 1.19895e-14 9.57686e-15 1.19895e-14 2.02813e-14 3.97893e-14 8.26674e-14 1.74761e-13
3.17899e-19 8.32682e-18 3.56799e-16 8.68894e-15 1.36133e-13 1.36542e-12 8.68951e-12 3.32794e-11 8.45637e-11
5.54581e-10 4.21052e-09 2.86287e-08 1.68616e-07 8.51722e-07 1.30512e-05 4.22757e-05 3.98635e-05 3.96499e-05
3.08808e-06 4.36844e-11 1.08696e-11 3.85924e-11 1.99809e-11 9.57686e-15 9.57691e-15 8.14244e-15 1.44164e-14
3.11021e-14 7.54397e-14 2.91676e-13 1.62139e-19 4.8157e-18 2.10742e-16 5.19866e-15 8.13448e-14 8.27696e-13
5.75887e-12 2.49827e-11 7.99823e-11 6.16132e-10 5.02705e-09 3.61325e-08 2.24362e-07 1.20023e-06 2.98723e-05
4.27048e-05 4.22757e-05 3.51022e-05 4.05208e-10 1.55808e-10 4.36844e-11 2.70227e-10 1.04971e-10 1.25137e-14
8.14244e-15 4.56427e-15 3.32581e-15 3.51406e-14 1.48429e-13 6.10986e-13 7.48825e-20 2.91596e-18 1.25523e-16
3.03896e-15 4.6549e-14 4.82483e-13 3.77568e-12 2.12404e-11 6.52561e-11 5.29507e-10 4.44215e-09 3.25517e-08
2.05932e-07 1.12275e-06 2.94636e-05 4.22991e-05 4.27048e-05 2.80269e-05 5.08672e-10 4.05216e-10 1.55808e-10
1.44776e-09 6.03903e-10 3.60932e-14 4.56427e-15 3.3261e-15 1.01356e-15 3.32414e-15 1.19176e-14 2.01369e-13
3.02946e-20 1.61349e-18 6.62002e-17 1.53401e-15 2.27697e-14 2.41186e-13 2.118e-12 1.52043e-11 4.16546e-11
3.48466e-10 2.945e-09 2.20915e-08 1.43078e-07 7.95001e-07 2.03344e-05 4.27048e-05 4.14694e-05 1.68267e-05
1.82903e-09 5.08673e-10 7.50951e-10 5.24024e-09 3.25518e-09 1.20288e-13 7.61494e-15 1.01383e-15 3.35841e-16
1.01245e-15 4.10049e-15 1.05506e-13 1.07363e-20 7.39019e-19 2.87283e-17 6.36414e-16 9.24197e-15 1.00672e-13
9.62489e-13 8.22674e-12 3.1038e-11 1.88359e-10 1.58118e-09 1.23996e-08 8.44017e-08 7.68874e-07 9.83683e-06
3.13411e-05 3.28199e-05 2.01888e-08 3.57905e-09 1.82903e-09 2.97831e-09 1.25136e-08 1.63795e-08 -8.77854e-12
2.33888e-14 3.36029e-16 1.28487e-16 3.35467e-16 1.55016e-15 6.97361e-14 3.41745e-21 2.78053e-19 1.03724e-17
2.22804e-16 3.2099e-15 3.57015e-14 3.5308e-13 3.33323e-12 2.14663e-11 8.16168e-11 6.94849e-10 5.74044e-09
5.26084e-08 9.04244e-07 3.48709e-06 2.11356e-06 1.64287e-06 1.18001e-08 1.28718e-08 3.57905e-09 2.65858e-08
6.23942e-08 7.79345e-08 -4.47734e-11 6.40139e-14 1.28538e-16 6.25589e-17 1.28469e-16 6.49933e-16 5.47065e-14
1.07712e-21 8.94049e-20 3.2443e-18 6.82835e-17 9.76661e-16 1.07777e-14 1.01522e-13 9.20937e-13 7.21518e-12
2.59072e-11 2.26209e-10 1.91047e-09 2.59236e-08 1.997e-07 3.67443e-07 6.51658e-07 6.68169e-07 2.80802e-07
1.40227e-08 1.28718e-08 1.17466e-06 1.3843e-06 3.56018e-07 -4.63404e-10 1.31514e-13 6.25615e-17 3.85627e-17
6.25592e-17 1.36764e-15 4.90189e-14 3.16663e-22 2.58158e-20 9.21047e-19 1.91935e-17 2.74968e-16 3.03567e-15
2.72427e-14 2.18447e-13 1.73677e-12 1.06642e-11 6.3194e-11 5.40877e-10 4.18984e-09 2.60486e-08 1.00293e-07
1.92172e-07 2.15919e-07 1.35192e-07 2.46017e-07 1.40668e-06 2.67088e-06 3.1993e-06 1.59863e-06 1.34312e-06
1.90306e-13 3.85627e-17 2.87415e-17 3.85628e-17 2.16156e-15 4.57349e-14 8.58349e-23 6.90523e-21 2.43813e-19
5.05932e-18 7.28753e-17 8.13834e-16 7.25292e-15 5.25924e-14 3.76852e-13 2.86653e-12 1.62327e-11 1.32384e-10
1.05335e-09 6.67006e-09 2.55777e-08 5.29213e-08 6.43172e-08 3.21644e-08 3.38856e-07 1.52836e-06 1.3462e-06
2.75393e-06 1.27398e-05 4.20462e-05 2.08043e-13 2.87415e-17 2.33323e-17 9.01222e-17 2.51512e-15 4.23881e-14
2.18775e-23 1.74311e-21 6.11829e-20 1.26965e-18 1.84267e-17 2.09178e-16 1.92082e-15 1.40576e-14 9.37449e-14
7.02423e-13 6.29676e-12 5.24518e-11 2.47636e-10 1.57087e-09 6.06387e-09 1.34925e-08 1.75923e-08 9.72789e-09
1.86763e-07 4.94222e-07 4.60979e-08 5.2321e-05 0.000199585 5.46564e-05 2.00765e-13 2.33323e-17 2.00247e-17
1.18883e-16 2.46319e-15 4.10996e-14 5.31749e-24 4.2014e-22 1.47007e-20 3.06219e-19 4.49307e-18 5.19397e-17
4.96803e-16 3.9394e-15 2.85381e-14 2.25658e-13 2.05905e-12 2.01519e-11 1.15227e-10 3.70275e-10 1.45938e-09
3.2449e-09 4.45485e-09 3.81886e-09 1.14577e-08 8.1652e-09 4.90335e-08 0.000185037 0.000223334 5.49569e-05
1.53389e-13 2.00247e-17 1.73906e-17 1.16155e-16 2.09344e-15 4.21249e-14 1.24122e-24 9.72571e-23 3.39669e-21
7.12458e-20 1.06526e-18 1.27581e-17 1.31662e-16 1.22817e-15 1.13342e-14 1.06967e-13 9.05288e-13 6.83904e-12
4.14737e-11 1.5039e-10 3.71517e-10 8.4197e-10 1.14541e-09 1.01916e-09 1.27016e-09 1.23897e-09 1.96021e-05
0.000223667 0.00022274 2.34375e-05 4.31839e-14 1.78582e-18 1.41585e-17 8.92879e-17 1.48602e-15 3.6163e-14
2.79218e-25 2.16986e-23 7.57976e-22 1.61428e-20 2.52511e-19 3.34232e-18 4.16743e-17 5.18071e-16 6.43724e-15
7.29684e-14 6.03789e-13 3.24698e-12 1.37853e-11 5.23439e-11 1.80027e-10 3.17353e-10 3.74164e-10 5.85661e-10
2.75543e-10 3.41845e-10 0.00011707 0.000228767 0.000223667 2.46047e-06 1.78582e-18 1.45066e-18 8.36162e-18
6.09525e-17 6.87021e-16 2.64538e-14 6.07368e-26 4.6915e-24 1.65599e-22 3.7007e-21 6.57571e-20 1.10855e-18
1.89923e-17 3.14121e-16 4.64218e-15 5.68612e-14 4.70074e-13 2.08673e-12 5.77185e-12 1.5822e-11 5.70497e-11
1.44622e-10 2.35309e-10 2.45646e-10 7.60784e-11 2.75543e-10 0.000208995 0.000229141 0.000127513 1.0663e-12
2.01065e-12 1.2044e-18 2.84147e-18 2.20649e-17 1.21941e-16 1.47671e-14 1.28709e-26 9.98724e-25 3.6961e-23
9.50671e-22 2.22287e-20 5.23325e-19 1.15761e-17 2.19231e-16 3.39112e-15 4.16523e-14 3.41541e-13 1.37599e-12
2.84211e-12 5.11009e-12 1.52761e-11 4.28765e-11 7.11753e-11 6.00161e-11 2.89821e-11 4.59869e-05 0.000229141
0.000228735 1.07989e-12 1.11287e-12 2.27443e-12 1.17973e-18 1.2044e-18 7.59168e-18 9.41776e-17 4.64461e-15
2.60765e-27 2.16096e-25 9.10898e-24 3.0712e-22 9.96047e-21 2.94616e-19 7.22341e-18 1.40128e-16 2.12933e-15
2.53398e-14 2.03947e-13 7.79207e-13 1.3477e-12 1.75296e-12 3.9447e-12 9.86049e-12 1.52243e-11 2.44399e-11
2.9002e-11 0.000160259 0.000225077 0.000155203 1.03863e-12 2.15078e-12 2.27891e-12 7.59724e-20 3.71361e-19
4.24772e-18 4.93185e-17 5.44225e-16 3.93357e-28 5.20852e-26 2.8001e-24 1.27379e-22 5.04878e-21 1.60998e-19
3.95882e-18 7.48436e-17 1.10269e-15 1.27287e-14 9.9106e-14 3.60321e-13 5.50936e-13 4.24636e-13 8.92005e-13
1.41225e-12 3.21645e-12 2.26928e-11 8.59057e-07 0.000129003 0.000175849 7.06676e-06 9.73475e-13 2.15514e-12
1.2333e-12 1.72538e-21 1.92289e-20 1.93206e-19 1.79489e-18 1.57041e-17 3.93357e-28 7.45791e-27 5.69254e-25
3.42082e-23 1.5284e-21 4.93868e-20 1.18684e-18 2.19151e-17 3.17365e-16 3.57454e-15 2.60505e-14 8.41817e-14
1.18607e-13 1.69687e-13 2.0817e-13 3.8002e-13 3.18005e-12 2.12786e-10 2.43916e-06 1.10545e-05 3.33035e-06
9.73475e-13 9.73475e-13 9.81074e-13 4.97471e-14 1.92593e-37 0 0 3.9443e-34 0
0.986527 0.0589533 0.032969 0.995881 0.999966 0.406748 1.00004 1.00001 0.999988
1.00004 1.00005 1.00001 1.00008 1.00003 1.00004 1.00002 1.00006 1.00005
1.00002 1.00002 1.00004 0.987715 0.999997 1.00002 0.153834 0.351751 0.602173
7.17343e-05 0.00587001 0.0760972 -2.61274e-09 -7.8582e-09 -1.62731e-08 3.66164e-13 7.48397e-13 1.15836e-12
5.93531e-13 1.1097e-12 1.67321e-12 1.19603e-12 1.97521e-12 2.75534e-12 6.26143e-13 1.37466e-12 2.05059e-12
3.9847e-13 1.16774e-12 2.29746e-12 3.10402e-13 1.08375e-12 2.25114e-12 2.89378e-13 1.00283e-12 2.18761e-12
2.7556e-13 9.65998e-13 2.45652e-12 2.57136e-13 1.07175e-12 2.81255e-12 2.75736e-13 1.19588e-12 3.27789e-12
2.92084e-13 1.33404e-12 3.78304e-12 2.98782e-13 1.43241e-12 4.18823e-12 2.61654e-13 1.38966e-12 3.7135e-12
1.71031e-13 1.12203e-12 1.98569e-12 6.57139e-14 6.61809e-13 1.02921e-12 1.31143e-14 1.19676e-13 6.8269e-13
5.76657e-15 4.7377e-14 2.45848e-13 1.31438e-16 6.04639e-16 2.77212e-15 -3.19255e-22 -1.71398e-21 -1.6992e-20
0.00674896 1.14413e-06 1.11748e-06 6.68246e-09 2.30809e-12 3.4785e-14 1.49074e-14 2.26463e-15 4.00506e-17
5.72786e-16 5.89418e-18 6.1821e-19 6.45692e-20 6.05347e-21 4.59737e-22 1.54568e-23 7.33396e-25 1.40939e-25
2.56142e-26 1.27021e-29 1.73062e-31 1.38512e-33 8.7223e-36 4.85944e-38 2.6199e-40 1.48762e-41 1.17709e-43
0 0 0 0.000227704 3.8208e-06 1.61025e-10 3.03599e-12 1.544e-12 1.53349e-12
2.74271e-13 1.35523e-14 1.49811e-14 3.30824e-13 1.13082e-15 5.17302e-17 4.52633e-18 3.89633e-19 2.7202e-20
7.117e-22 8.88286e-23 2.9034e-23 5.68202e-24 3.27116e-27 4.50205e-29 3.73626e-31 2.44321e-33 1.42286e-35
8.08553e-38 4.30424e-39 3.73572e-41 1.45735e-43 0 0 0.346022 0.000172924 2.17925e-06
1.61025e-10 3.03599e-12 2.1847e-13 7.15001e-14 8.33887e-14 7.15001e-14 3.13046e-12 3.49843e-15 1.83579e-15
2.76128e-16 2.41603e-17 1.40585e-18 1.78431e-20 1.27611e-20 5.91932e-21 1.04898e-21 7.23781e-25 1.02387e-26
8.86784e-29 6.03815e-31 3.68668e-33 2.21323e-35 1.14954e-36 1.01896e-38 4.20151e-41 7.28675e-44 0
0.929547 0.269211 0.000161549 2.17925e-06 1.94298e-11 2.01106e-11 2.1847e-13 7.15001e-14 9.42796e-12
3.90019e-10 2.37492e-13 3.49843e-15 4.63927e-15 8.20229e-16 6.66412e-17 3.86696e-19 2.73061e-18 8.56502e-19
1.63537e-19 1.38727e-22 2.02791e-24 1.84751e-26 1.31496e-28 8.50585e-31 5.47212e-33 2.82922e-34 2.76812e-36
1.12322e-38 1.84411e-41 3.64338e-44 1.00002 0.899254 0.310608 0.000161549 7.71478e-07 1.94298e-11