CRYSTAL
PRIMVEC
5.0 0.0 0.0
0.0 5.0 0.0
0.0 0.0 5.0
PRIMCOORD
2 1
14 0.0 0.0 0.0
8 1.25 1.25 1.25
