ATOMS
14 0.0 0.0 0.0
8 1.25 1.25 1.25
BEGIN_BLOCK_DATAGRID_3D
density
BEGIN_DATAGRID_3D_density
2 2 2
0.0 0.0 0.0
5.0 0.0 0.0
0.0 5.0 0.0
0.0 0.0 5.0
0.000000 0.125000 0.250000 0.375000
0.500000 0.625000 0.750000 0.875000
END_DATAGRID_3D
END_BLOCK_DATAGRID_3D
