CRYSTAL
PRIMVEC
 8.64683064408573 4.99225000000000 0.00000000000000
 0.00000000000000 9.98450000000000 0.00000000000000
 0.00000000000000 0.00000000000000 53.97610000000000
PRIMCOORD
 140 1
 79     0.69821000000000     2.89897100000000    10.62416900000000
 79     3.58048100000000     2.89897100000000    10.62416900000000
 79     2.13935000000000     5.39509100000000    10.62416900000000
 79     0.69821000000000     7.89121200000000    10.62416900000000
 79     3.58048100000000     7.89121200000000    10.62416900000000
 79     2.13935000000000    10.38733200000000    10.62416900000000
 79     5.02162100000000     5.39509100000000    10.62416900000000
 79     7.90389100000000     5.39509100000000    10.62416900000000
 79     6.46276100000000     7.89121200000000    10.62416900000000
 79     5.02162100000000    10.38733200000000    10.62416900000000
 79     7.90389100000000    10.38733200000000    10.62416900000000
 79     6.46276100000000    12.88345300000000    10.62416900000000
 79     0.69821000000000     1.23489000000000    12.97753900000000
 79     2.13935000000000     3.73101100000000    12.97753900000000
 79     3.58048100000000     6.22713100000000    12.97753900000000
 79     0.69821000000000     6.22713100000000    12.97753900000000
 79     2.13935000000000     8.72325200000000    12.97753900000000
 79     3.58048100000000    11.21937200000000    12.97753900000000
 79     5.02162100000000     3.73101100000000    12.97753900000000
 79     6.46276100000000     6.22713100000000    12.97753900000000
 79     7.90389100000000     8.72325200000000    12.97753900000000
 79     5.02162100000000     8.72325200000000    12.97753900000000
 79     6.46276100000000    11.21937200000000    12.97753900000000
 79     7.90389100000000    13.71549300000000    12.97753900000000
 79     2.13935000000000     2.06693000000000    15.33781000000000
 79     0.69821000000000     4.56305100000000    15.33781000000000
 79     3.58048100000000     4.56305100000000    15.33781000000000
 79     2.13935000000000     7.05917100000000    15.33781000000000
 79     0.69821000000000     9.55529200000000    15.33781000000000
 79     3.58048100000000     9.55529200000000    15.33781000000000
 79     6.46276100000000     4.56305100000000    15.33781000000000
 79     5.02162100000000     7.05917100000000    15.33781000000000
 79     7.90389100000000     7.05917100000000    15.33781000000000
 79     6.46276100000000     9.55529200000000    15.33781000000000
 79     5.02162100000000    12.05141200000000    15.33781000000000
 79     7.90389100000000    12.05141200000000    15.33781000000000
 79     4.88437100000000    10.47079600000000    17.76427100000000
 79     6.31303200000000     7.96394500000000    17.77232300000000
 79     0.55580200000000     2.96855800000000    17.76391400000000
 79     6.31849300000000    12.97117300000000    17.76648300000000
 79     3.44082400000000     2.98695300000000    17.77221600000000
 79     7.75559400000000     5.47058900000000    17.76716400000000
 79     7.77140200000000    10.46650600000000    17.77000300000000
 79     2.00160900000000    10.45418200000000    17.77929400000000
 79     4.85271800000000     5.48994700000000    17.84100000000000
 79     2.00006500000000     5.47965700000000    17.80549700000000
 79     3.43537200000000     7.96328800000000    17.80935800000000
 79     0.56326000000000     7.96679900000000    17.81522600000000
 79     3.42800700000000    11.33780200000000    20.22525100000000
 79     7.71818700000000     8.78533500000000    20.22134500000000
 79     0.52627400000000     1.32417200000000    20.23044900000000
 79     6.29344000000000    11.31168600000000    20.22605300000000
 79     4.86956700000000     3.81608500000000    20.26840300000000
 79     6.30483500000000     6.30633100000000    20.27034200000000
 79     4.86718900000000     8.81675800000000    20.22072300000000
 79     1.97544600000000     3.80537600000000    20.22332300000000
 79     7.73676900000000    13.80462400000000    20.24060800000000
 79     0.48025600000000     6.26013400000000    20.23321300000000
 79     1.99357700000000     8.88299300000000    20.26025500000000
 79     3.43173800000000     6.30287500000000    20.36621100000000
 16     2.06002500000000     7.12537500000000    22.21192300000000
  6     2.89121700000000     6.75835500000000    23.85836300000000
  1     3.14412000000000     5.69033200000000    23.86168000000000
  1     3.82510400000000     7.33514900000000    23.88184100000000
  1     1.02557300000000     6.55674600000000    24.91904100000000
  1     1.68370400000000     8.19343000000000    24.92628400000000
  6     1.95984100000000     7.13106800000000    25.01599500000000
  6     2.56940100000000     6.87881100000000    26.41226300000000
  1     2.87295900000000     5.82235700000000    26.49763000000000
  1     3.48809000000000     7.47740400000000    26.52339300000000
  1     1.26574200000000     8.27202500000000    27.44011800000000
  1     0.68474300000000     6.60668400000000    27.44710400000000
  6     1.59158300000000     7.22497900000000    27.55315200000000
  6     2.17270900000000     7.02949700000000    28.96878200000000
  1     3.08564800000000     7.63553200000000    29.07905600000000
  1     2.47624200000000     5.98015800000000    29.10394200000000
  1     0.88750700000000     8.47010400000000    30.00799600000000
  1     0.26827700000000     6.79951700000000    30.02321000000000
  6     1.17532400000000     7.41371100000000    30.07302300000000
 16     1.93126400000000     7.13303000000000    31.76604900000000
 79     2.03172500000000     8.84098800000000    33.57767100000000
 79     3.52682200000000     6.25193600000000    33.82838800000000
 79     0.54040400000000     6.25634700000000    33.57289800000000
 79     2.02306800000000     3.79641400000000    33.78560700000000
 79     4.90142300000000     8.78497100000000    33.78001000000000
 79     7.77086000000000    13.78772000000000    33.73552100000000
 79     6.33519000000000    11.28377300000000    33.73678900000000
 79     0.57558100000000     1.30627900000000    33.73807300000000
 79     3.46803600000000    11.30775500000000    33.74304900000000
 79     7.76807100000000     8.76922100000000    33.73975100000000
 79     4.91750200000000     3.78255700000000    33.71467100000000
 79     6.36212300000000     6.28362600000000    33.71564900000000
 79     3.46060900000000     7.95806400000000    36.17950500000000
 79     2.01720500000000     5.46407400000000    36.18376100000000
 79     0.60172300000000     7.94507700000000    36.12494200000000
 79     2.03965100000000    10.42492800000000    36.14982600000000
 79     4.92357200000000     5.44877700000000    36.21874200000000
 79     7.81883400000000    10.45540600000000    36.14353700000000
 79     3.47864200000000     2.96347500000000    36.21600900000000
 79     0.58801600000000     2.94723800000000    36.21457000000000
 79     4.92341000000000    10.45462800000000    36.21420300000000
 79     6.35497700000000     7.94623900000000    36.21506400000000
 79     6.36979800000000    12.94089200000000    36.20805100000000
 79     7.80526100000000     5.44592600000000    36.20737400000000
 79     2.13935000000000     2.06693000000000    38.63827400000000
 79     0.69821000000000     4.56305100000000    38.63827400000000
 79     3.58048100000000     4.56305100000000    38.63827400000000
 79     2.13935000000000     7.05917100000000    38.63827400000000
 79     0.69821000000000     9.55529200000000    38.63827400000000
 79     3.58048100000000     9.55529200000000    38.63827400000000
 79     6.46275100000000     4.56305100000000    38.63827400000000
 79     5.02162100000000     7.05917100000000    38.63827400000000
 79     7.90389100000000     7.05917100000000    38.63827400000000
 79     6.46275100000000     9.55529200000000    38.63827400000000
 79     5.02162100000000    12.05141200000000    38.63827400000000
 79     7.90389100000000    12.05141200000000    38.63827400000000
 79     0.69821000000000     1.23489000000000    40.99854500000000
 79     2.13935000000000     3.73101100000000    40.99854500000000
 79     3.58048100000000     6.22713100000000    40.99854500000000
 79     0.69821000000000     6.22713100000000    40.99854500000000
 79     2.13935000000000     8.72325200000000    40.99854500000000
 79     3.58048100000000    11.21937200000000    40.99854500000000
 79     5.02162100000000     3.73101100000000    40.99854500000000
 79     6.46275100000000     6.22713100000000    40.99854500000000
 79     7.90389100000000     8.72325200000000    40.99854500000000
 79     5.02162100000000     8.72325200000000    40.99854500000000
 79     6.46275100000000    11.21937200000000    40.99854500000000
 79     7.90389100000000    13.71549300000000    40.99854500000000
 79     0.69821000000000     2.89897100000000    43.35189500000000
 79     3.58048100000000     2.89897100000000    43.35189500000000
 79     2.13935000000000     5.39509100000000    43.35189500000000
 79     0.69821000000000     7.89121200000000    43.35189500000000
 79     3.58048100000000     7.89121200000000    43.35189500000000
 79     2.13935000000000    10.38733200000000    43.35189500000000
 79     5.02162100000000     5.39509100000000    43.35189500000000
 79     7.90389100000000     5.39509100000000    43.35189500000000
 79     6.46275100000000     7.89121200000000    43.35189500000000
 79     5.02162100000000    10.38733200000000    43.35189500000000
 79     7.90389100000000    10.38733200000000    43.35189500000000
 79     6.46275100000000    12.88345300000000    43.35189500000000
