CRYSTAL
PRIMVEC
 22.78000057571474 0.00000000000000 0.00000000000000
 0.00000000000000 22.74285902315781 0.00000000000000
 0.00000000000000 0.00000000000000 24.59512146747806
PRIMCOORD
 200 1
  6    14.78000057571474    11.37142951157890     0.00000000000000
  6    14.48691965223658    12.75026684868801     0.00000000000000
  6    14.13256813166995    13.36402168604871     1.22975607337390
  6    13.08500043178606    14.30725587969995     1.22975607337390
  6    12.43756798774126    14.59551137558810    -0.00000000000000
  6    11.03564876729074    14.74285902315781     2.45951214674781
  6    10.34243258797348    14.59551137558810     1.22975607337390
  6     9.12164733968666    13.89069068386699     1.22975607337390
  6     8.64743244404479    13.36402168604871    -0.00000000000000
  6     8.07407963980277    12.07625020330002     2.45951214674780
  6     8.00000000000000    11.37142951157890     1.22975607337390
  6     8.29308092347816     9.99259217446980     1.22975607337390
  6     8.64743244404479     9.37883733710910    -0.00000000000000
  6     9.69500014392868     8.43560314345786     2.45951214674780
  6    10.34243258797348     8.14734764756971     1.22975607337390
  6    11.74435180842400     8.00000000000000     1.22975607337390
  6    12.43756798774126     8.14734764756971    -0.00000000000000
  6    13.65835323602808     8.85216833929082     2.45951214674780
  6    14.13256813166995     9.37883733710910     1.22975607337390
  6    14.70592093591197    10.66660881985779     1.22975607337390
  6    14.78000057571474    11.37142951157890     2.45951214674781
  6    14.48691965223658    12.75026684868801     2.45951214674781
  6    14.13256813166995    13.36402168604871     3.68926822012171
  6    13.08500043178606    14.30725587969995     3.68926822012171
  6    12.43756798774126    14.59551137558810     2.45951214674781
  6    11.03564876729074    14.74285902315781     4.91902429349561
  6    10.34243258797348    14.59551137558810     3.68926822012171
  6     9.12164733968666    13.89069068386699     3.68926822012171
  6     8.64743244404479    13.36402168604871     2.45951214674780
  6     8.07407963980277    12.07625020330002     4.91902429349561
  6     8.00000000000000    11.37142951157890     3.68926822012171
  6     8.29308092347816     9.99259217446980     3.68926822012171
  6     8.64743244404479     9.37883733710910     2.45951214674780
  6     9.69500014392868     8.43560314345786     4.91902429349561
  6    10.34243258797348     8.14734764756971     3.68926822012171
  6    11.74435180842400     8.00000000000000     3.68926822012171
  6    12.43756798774126     8.14734764756971     2.45951214674780
  6    13.65835323602808     8.85216833929082     4.91902429349561
  6    14.13256813166995     9.37883733710910     3.68926822012171
  6    14.70592093591197    10.66660881985779     3.68926822012171
  6    14.78000057571474    11.37142951157890     4.91902429349561
  6    14.48691965223658    12.75026684868801     4.91902429349561
  6    14.13256813166995    13.36402168604871     6.14878036686951
  6    13.08500043178606    14.30725587969995     6.14878036686951
  6    12.43756798774126    14.59551137558810     4.91902429349561
  6    11.03564876729074    14.74285902315781     7.37853644024342
  6    10.34243258797348    14.59551137558810     6.14878036686951
  6     9.12164733968666    13.89069068386699     6.14878036686951
  6     8.64743244404479    13.36402168604871     4.91902429349561
  6     8.07407963980277    12.07625020330002     7.37853644024342
  6     8.00000000000000    11.37142951157890     6.14878036686951
  6     8.29308092347816     9.99259217446980     6.14878036686951
  6     8.64743244404479     9.37883733710910     4.91902429349561
  6     9.69500014392868     8.43560314345786     7.37853644024342
  6    10.34243258797348     8.14734764756971     6.14878036686951
  6    11.74435180842400     8.00000000000000     6.14878036686951
  6    12.43756798774126     8.14734764756971     4.91902429349561
  6    13.65835323602808     8.85216833929082     7.37853644024342
  6    14.13256813166995     9.37883733710910     6.14878036686951
  6    14.70592093591197    10.66660881985779     6.14878036686951
  6    14.78000057571474    11.37142951157890     7.37853644024342
  6    14.48691965223658    12.75026684868801     7.37853644024342
  6    14.13256813166995    13.36402168604871     8.60829251361732
  6    13.08500043178606    14.30725587969995     8.60829251361732
  6    12.43756798774126    14.59551137558810     7.37853644024342
  6    11.03564876729074    14.74285902315781     9.83804858699122
  6    10.34243258797348    14.59551137558810     8.60829251361732
  6     9.12164733968666    13.89069068386699     8.60829251361732
  6     8.64743244404479    13.36402168604871     7.37853644024342
  6     8.07407963980277    12.07625020330002     9.83804858699122
  6     8.00000000000000    11.37142951157890     8.60829251361732
  6     8.29308092347816     9.99259217446980     8.60829251361732
  6     8.64743244404479     9.37883733710910     7.37853644024342
  6     9.69500014392868     8.43560314345786     9.83804858699122
  6    10.34243258797348     8.14734764756971     8.60829251361732
  6    11.74435180842400     8.00000000000000     8.60829251361732
  6    12.43756798774126     8.14734764756971     7.37853644024342
  6    13.65835323602808     8.85216833929082     9.83804858699122
  6    14.13256813166995     9.37883733710910     8.60829251361732
  6    14.70592093591197    10.66660881985779     8.60829251361732
  6    14.78000057571474    11.37142951157890     9.83804858699122
  6    14.48691965223658    12.75026684868801     9.83804858699122
  6    14.13256813166995    13.36402168604871    11.06780466036513
  6    13.08500043178606    14.30725587969995    11.06780466036513
  6    12.43756798774126    14.59551137558810     9.83804858699122
  6    11.03564876729074    14.74285902315781    12.29756073373903
  6    10.34243258797348    14.59551137558810    11.06780466036513
  6     9.12164733968666    13.89069068386699    11.06780466036513
  6     8.64743244404479    13.36402168604871     9.83804858699122
  6     8.07407963980277    12.07625020330002    12.29756073373903
  6     8.00000000000000    11.37142951157890    11.06780466036512
  6     8.29308092347816     9.99259217446980    11.06780466036512
  6     8.64743244404479     9.37883733710910     9.83804858699122
  6     9.69500014392868     8.43560314345786    12.29756073373903
  6    10.34243258797348     8.14734764756971    11.06780466036512
  6    11.74435180842400     8.00000000000000    11.06780466036512
  6    12.43756798774126     8.14734764756971     9.83804858699122
  6    13.65835323602808     8.85216833929082    12.29756073373903
  6    14.13256813166995     9.37883733710910    11.06780466036512
  6    14.70592093591197    10.66660881985779    11.06780466036512
  6    14.78000057571474    11.37142951157890    12.29756073373903
  6    14.48691965223658    12.75026684868801    12.29756073373903
  6    14.13256813166995    13.36402168604871    13.52731680711293
  6    13.08500043178606    14.30725587969995    13.52731680711293
  6    12.43756798774126    14.59551137558810    12.29756073373903
  6    11.03564876729074    14.74285902315781    14.75707288048683
  6    10.34243258797348    14.59551137558810    13.52731680711293
  6     9.12164733968666    13.89069068386699    13.52731680711293
  6     8.64743244404479    13.36402168604871    12.29756073373903
  6     8.07407963980277    12.07625020330002    14.75707288048683
  6     8.00000000000000    11.37142951157890    13.52731680711293
  6     8.29308092347816     9.99259217446980    13.52731680711293
  6     8.64743244404479     9.37883733710910    12.29756073373903
  6     9.69500014392868     8.43560314345786    14.75707288048683
  6    10.34243258797348     8.14734764756971    13.52731680711293
  6    11.74435180842400     8.00000000000000    13.52731680711293
  6    12.43756798774126     8.14734764756971    12.29756073373903
  6    13.65835323602808     8.85216833929082    14.75707288048683
  6    14.13256813166995     9.37883733710910    13.52731680711293
  6    14.70592093591197    10.66660881985779    13.52731680711293
  6    14.78000057571474    11.37142951157890    14.75707288048683
  6    14.48691965223658    12.75026684868801    14.75707288048683
  6    14.13256813166995    13.36402168604871    15.98682895386074
  6    13.08500043178606    14.30725587969995    15.98682895386074
  6    12.43756798774126    14.59551137558810    14.75707288048683
  6    11.03564876729074    14.74285902315781    17.21658502723464
  6    10.34243258797348    14.59551137558810    15.98682895386074
  6     9.12164733968666    13.89069068386699    15.98682895386074
  6     8.64743244404479    13.36402168604871    14.75707288048683
  6     8.07407963980277    12.07625020330002    17.21658502723464
  6     8.00000000000000    11.37142951157890    15.98682895386074
  6     8.29308092347816     9.99259217446980    15.98682895386074
  6     8.64743244404479     9.37883733710910    14.75707288048683
  6     9.69500014392868     8.43560314345786    17.21658502723464
  6    10.34243258797348     8.14734764756971    15.98682895386074
  6    11.74435180842400     8.00000000000000    15.98682895386074
  6    12.43756798774126     8.14734764756971    14.75707288048683
  6    13.65835323602808     8.85216833929082    17.21658502723464
  6    14.13256813166995     9.37883733710910    15.98682895386074
  6    14.70592093591197    10.66660881985779    15.98682895386074
  6    14.78000057571474    11.37142951157890    17.21658502723464
  6    14.48691965223658    12.75026684868801    17.21658502723464
  6    14.13256813166995    13.36402168604871    18.44634110060854
  6    13.08500043178606    14.30725587969995    18.44634110060854
  6    12.43756798774126    14.59551137558810    17.21658502723464
  6    11.03564876729074    14.74285902315781    19.67609717398244
  6    10.34243258797348    14.59551137558810    18.44634110060854
  6     9.12164733968666    13.89069068386699    18.44634110060854
  6     8.64743244404479    13.36402168604871    17.21658502723464
  6     8.07407963980277    12.07625020330002    19.67609717398244
  6     8.00000000000000    11.37142951157890    18.44634110060854
  6     8.29308092347816     9.99259217446980    18.44634110060854
  6     8.64743244404479     9.37883733710910    17.21658502723464
  6     9.69500014392868     8.43560314345786    19.67609717398244
  6    10.34243258797348     8.14734764756971    18.44634110060854
  6    11.74435180842400     8.00000000000000    18.44634110060854
  6    12.43756798774126     8.14734764756971    17.21658502723464
  6    13.65835323602808     8.85216833929082    19.67609717398244
  6    14.13256813166995     9.37883733710910    18.44634110060854
  6    14.70592093591197    10.66660881985779    18.44634110060854
  6    14.78000057571474    11.37142951157890    19.67609717398244
  6    14.48691965223658    12.75026684868801    19.67609717398244
  6    14.13256813166995    13.36402168604871    20.90585324735635
  6    13.08500043178606    14.30725587969995    20.90585324735635
  6    12.43756798774126    14.59551137558810    19.67609717398244
  6    11.03564876729074    14.74285902315781    22.13560932073025
  6    10.34243258797348    14.59551137558810    20.90585324735635
  6     9.12164733968666    13.89069068386699    20.90585324735635
  6     8.64743244404479    13.36402168604871    19.67609717398244
  6     8.07407963980277    12.07625020330002    22.13560932073025
  6     8.00000000000000    11.37142951157890    20.90585324735635
  6     8.29308092347816     9.99259217446980    20.90585324735635
  6     8.64743244404479     9.37883733710910    19.67609717398244
  6     9.69500014392868     8.43560314345786    22.13560932073025
  6    10.34243258797348     8.14734764756971    20.90585324735635
  6    11.74435180842400     8.00000000000000    20.90585324735635
  6    12.43756798774126     8.14734764756971    19.67609717398244
  6    13.65835323602808     8.85216833929082    22.13560932073025
  6    14.13256813166995     9.37883733710910    20.90585324735634
  6    14.70592093591197    10.66660881985779    20.90585324735634
  6    14.78000057571474    11.37142951157890    22.13560932073025
  6    14.48691965223658    12.75026684868801    22.13560932073025
  6    14.13256813166995    13.36402168604871    23.36536539410415
  6    13.08500043178606    14.30725587969995    23.36536539410415
  6    12.43756798774126    14.59551137558810    22.13560932073025
  6    11.03564876729074    14.74285902315781    24.59512146747806
  6    10.34243258797348    14.59551137558810    23.36536539410415
  6     9.12164733968666    13.89069068386699    23.36536539410415
  6     8.64743244404479    13.36402168604871    22.13560932073025
  6     8.07407963980277    12.07625020330002    24.59512146747806
  6     8.00000000000000    11.37142951157890    23.36536539410415
  6     8.29308092347816     9.99259217446980    23.36536539410415
  6     8.64743244404479     9.37883733710910    22.13560932073025
  6     9.69500014392868     8.43560314345786    24.59512146747806
  6    10.34243258797348     8.14734764756971    23.36536539410415
  6    11.74435180842400     8.00000000000000    23.36536539410415
  6    12.43756798774126     8.14734764756971    22.13560932073025
  6    13.65835323602808     8.85216833929082    24.59512146747806
  6    14.13256813166995     9.37883733710910    23.36536539410415
  6    14.70592093591197    10.66660881985779    23.36536539410415
