CRYSTAL
PRIMVEC
   20.000000     0.000000     0.000000
    0.000000    20.000000     0.000000
    0.000000     0.000000    19.676097
CONVVEC
   20.000000     0.000000     0.000000
    0.000000    20.000000     0.000000
    0.000000     0.000000    19.676097
PRIMCOORD
80 1
 6     0.710000     0.000000     0.000000
 6     2.130000     0.000000     0.000000
 6     4.970000     0.000000     0.000000
 6     6.390000     0.000000     0.000000
 6     0.000000     0.000000     1.229756
 6     2.840000     0.000000     1.229756
 6     4.260000     0.000000     1.229756
 6     7.100000     0.000000     1.229756
 1    -1.097400     0.000000     1.229756
 1     8.197400     0.000000     1.229756
 6     0.710000     0.000000     2.459512
 6     2.130000     0.000000     2.459512
 6     4.970000     0.000000     2.459512
 6     6.390000     0.000000     2.459512
 6     0.000000     0.000000     3.689268
 6     2.840000     0.000000     3.689268
 6     4.260000     0.000000     3.689268
 6     7.100000     0.000000     3.689268
 1    -1.097400     0.000000     3.689268
 1     8.197400     0.000000     3.689268
 6     0.710000     0.000000     4.919024
 6     2.130000     0.000000     4.919024
 6     4.970000     0.000000     4.919024
 6     6.390000     0.000000     4.919024
 6     0.000000     0.000000     6.148780
 6     2.840000     0.000000     6.148780
 6     4.260000     0.000000     6.148780
 6     7.100000     0.000000     6.148780
 1    -1.097400     0.000000     6.148780
 1     8.197400     0.000000     6.148780
 6     0.710000     0.000000     7.378536
 6     2.130000     0.000000     7.378536
 6     4.970000     0.000000     7.378536
 6     6.390000     0.000000     7.378536
 6     0.000000     0.000000     8.608293
 6     2.840000     0.000000     8.608293
 6     4.260000     0.000000     8.608293
 6     7.100000     0.000000     8.608293
 1    -1.097400     0.000000     8.608293
 1     8.197400     0.000000     8.608293
 6     0.710000     0.000000     9.838049
 6     2.130000     0.000000     9.838049
 6     4.970000     0.000000     9.838049
 6     6.390000     0.000000     9.838049
 6     0.000000     0.000000    11.067805
 6     2.840000     0.000000    11.067805
 6     4.260000     0.000000    11.067805
 6     7.100000     0.000000    11.067805
 1    -1.097400     0.000000    11.067805
 1     8.197400     0.000000    11.067805
 6     0.710000     0.000000    12.297561
 6     2.130000     0.000000    12.297561
 6     4.970000     0.000000    12.297561
 6     6.390000     0.000000    12.297561
 6     0.000000     0.000000    13.527317
 6     2.840000     0.000000    13.527317
 6     4.260000     0.000000    13.527317
 6     7.100000     0.000000    13.527317
 1    -1.097400     0.000000    13.527317
 1     8.197400     0.000000    13.527317
 6     0.710000     0.000000    14.757073
 6     2.130000     0.000000    14.757073
 6     4.970000     0.000000    14.757073
 6     6.390000     0.000000    14.757073
 6     0.000000     0.000000    15.986829
 6     2.840000     0.000000    15.986829
 6     4.260000     0.000000    15.986829
 6     7.100000     0.000000    15.986829
 1    -1.097400     0.000000    15.986829
 1     8.197400     0.000000    15.986829
 6     0.710000     0.000000    17.216585
 6     2.130000     0.000000    17.216585
 6     4.970000     0.000000    17.216585
 6     6.390000     0.000000    17.216585
 6     0.000000     0.000000    18.446341
 6     2.840000     0.000000    18.446341
 6     4.260000     0.000000    18.446341
 6     7.100000     0.000000    18.446341
 1    -1.097400     0.000000    18.446341
 1     8.197400     0.000000    18.446341
