CRYSTAL
PRIMVEC
 2.46000000000000 0.00000000000000 0.00000000000000
 -1.23000000000000 2.13042249330972 0.00000000000000
 0.00000000000000 -0.00000000000000 16.00000000000000
PRIMCOORD
 2 1
  6     0.00000000000000     0.00000000000000     8.00000000000000   0.0  0.0   0.5
  6     1.23000000000000     0.71014083110324     8.00000000000000   0.0  0.0  -0.5