CRYSTAL
PRIMVEC
   20.000000     0.000000     0.000000
    0.000000    20.000000     0.000000
    0.000000     0.000000     4.919024
CONVVEC
   20.000000     0.000000     0.000000
    0.000000    20.000000     0.000000
    0.000000     0.000000     4.919024
PRIMCOORD
20 1
 6     0.710000     0.000000     0.000000
 6     2.130000     0.000000     0.000000
 6     4.970000     0.000000     0.000000
 6     6.390000     0.000000     0.000000
 6     0.000000     0.000000     1.229756
 6     2.840000     0.000000     1.229756
 6     4.260000     0.000000     1.229756
 6     7.100000     0.000000     1.229756
 1    -1.097400     0.000000     1.229756
 1     8.197400     0.000000     1.229756
 6     0.710000     0.000000     2.459512
 6     2.130000     0.000000     2.459512
 6     4.970000     0.000000     2.459512
 6     6.390000     0.000000     2.459512
 6     0.000000     0.000000     3.689268
 6     2.840000     0.000000     3.689268
 6     4.260000     0.000000     3.689268
 6     7.100000     0.000000     3.689268
 1    -1.097400     0.000000     3.689268
 1     8.197400     0.000000     3.689268
