CRYSTAL
PRIMVEC
 3.18000000000000 0.00000000000000 0.00000000000000
 -1.59000000000000 2.75396078403451 0.00000000000000
 0.00000000000000 -0.00000000000000 19.19000000000000
PRIMCOORD
 3 1
 42     0.00000000000000     0.00000000000000     9.59500000000000
 16     1.59000000000000     0.91798692801150    11.19000000000000
 16     1.59000000000000     0.91798692801150     8.00000000000000
