CRYSTAL
PRIMVEC
 4.60000000000000 0.00000000000000 0.00000000000000
 0.00000000000000 4.60000000000000 0.00000000000000
 0.00000000000000 0.00000000000000 2.95000000000000
PRIMCOORD
 6 1
 22     0.00000000000000     0.00000000000000     0.00000000000000
 22     2.30000000000000     2.30000000000000     1.47500000000000
  8     1.38000000000000     1.38000000000000     0.00000000000000
  8     3.22000000000000     3.22000000000000     0.00000000000000
  8     0.92000000000000     3.68000000000000     1.47500000000000
  8     3.68000000000000     0.92000000000000     1.47500000000000
