CRYSTAL
PRIMVEC
 5.44370000000000 0.00000000000000 0.00000000000000
 0.00000000000000 5.44370000000000 0.00000000000000
 0.00000000000000 0.00000000000000 5.44370000000000
PRIMCOORD
 8 1
 14     4.08277500000000     4.08277500000000     1.36092500000000
 14     0.00000000000000     2.72185000000000     2.72185000000000
 14     4.08277500000000     1.36092500000000     4.08277500000000
 14     0.00000000000000     0.00000000000000     0.00000000000000
 14     1.36092500000000     4.08277500000000     4.08277500000000
 14     2.72185000000000     2.72185000000000     0.00000000000000
 14     1.36092500000000     1.36092500000000     1.36092500000000
 14     2.72185000000000     0.00000000000000     2.72185000000000
