SLAB
PRIMVEC
 12.17248324911560 0.00000000000000 0.00000000000000
 4.86899329964624 5.96327457258175 0.00000000000000
 0.00000000000000 0.00000000000000 36.66785914098598
PRIMCOORD
 64 1
 14    10.34661076174826     3.97551638172116    11.11119060939907
 14     2.43449664982312     2.98163728629087    10.00000000000000
 14     7.91211411192514     0.99387909543029    11.11119060939907
 14     0.00000000000000     0.00000000000000    10.00000000000000
 14     6.69486578701358     4.47245592943631    10.00000000000000
 14     6.08624162455780     2.48469773857573    11.11119060939907
 14     4.26036913719046     1.49081864314544    10.00000000000000
 14     8.52073827438092     5.46633502486660    11.11119060939907
 14     5.47761746210202     2.98163728629087    13.33357182819720
 14     9.73798659929248     1.98775819086058    12.22238121879813
 14     3.04312081227890     0.00000000000000    13.33357182819720
 14    12.17248324911561     4.96939547715146    12.22238121879813
 14    13.99835573648295     3.47857683400602    12.22238121879813
 14     1.21724832491156     1.49081864314544    13.33357182819720
 14    11.56385908665982     0.49693954771515    12.22238121879813
 14     3.65174497473468     4.47245592943631    13.33357182819720
 14    12.78110741157139     1.98775819086058    15.55595304699533
 14     4.86899329964624     0.99387909543029    14.44476243759626
 14    15.21560406139450     4.96939547715145    15.55595304699533
 14     7.30348994946936     3.97551638172116    14.44476243759626
 14     9.12936243683670     2.48469773857573    14.44476243759626
 14     8.52073827438092     0.49693954771515    15.55595304699533
 14    11.56385908665982     5.46633502486660    14.44476243759626
 14    10.95523492420405     3.47857683400602    15.55595304699533
 14     7.91211411192514     0.99387909543029    17.77833426579346
 14     0.00000000000000     0.00000000000000    16.66714365639439
 14    10.34661076174826     3.97551638172116    17.77833426579346
 14     2.43449664982312     2.98163728629087    16.66714365639439
 14     4.26036913719046     1.49081864314544    16.66714365639439
 14     8.52073827438092     5.46633502486660    17.77833426579346
 14     6.69486578701358     4.47245592943631    16.66714365639439
 14     6.08624162455780     2.48469773857573    17.77833426579346
 14     3.04312081227890     0.00000000000000    20.00071548459159
 14    12.17248324911561     4.96939547715146    18.88952487519252
 14     5.47761746210202     2.98163728629087    20.00071548459159
 14     9.73798659929249     1.98775819086058    18.88952487519252
 14    11.56385908665982     0.49693954771515    18.88952487519252
 14     3.65174497473468     4.47245592943631    20.00071548459159
 14    13.99835573648295     3.47857683400602    18.88952487519252
 14     1.21724832491156     1.49081864314544    20.00071548459159
 14    15.21560406139450     4.96939547715145    22.22309670338972
 14     7.30348994946936     3.97551638172116    21.11190609399065
 14    12.78110741157139     1.98775819086058    22.22309670338972
 14     4.86899329964624     0.99387909543029    21.11190609399065
 14    11.56385908665982     5.46633502486660    21.11190609399065
 14    10.95523492420404     3.47857683400602    22.22309670338972
 14     9.12936243683670     2.48469773857573    21.11190609399065
 14     8.52073827438092     0.49693954771515    22.22309670338972
 14    10.34661076174826     3.97551638172116    24.44547792218785
 14     2.43449664982312     2.98163728629087    23.33428731278878
 14     7.91211411192514     0.99387909543029    24.44547792218785
 14     0.00000000000000     0.00000000000000    23.33428731278878
 14     6.69486578701358     4.47245592943631    23.33428731278878
 14     6.08624162455780     2.48469773857573    24.44547792218785
 14     4.26036913719046     1.49081864314544    23.33428731278878
 14     8.52073827438092     5.46633502486660    24.44547792218785
 14     5.47761746210202     2.98163728629087    26.66785914098598
 14     9.73798659929248     1.98775819086058    25.55666853158692
 14     3.04312081227890     0.00000000000000    26.66785914098598
 14    12.17248324911561     4.96939547715145    25.55666853158692
 14    13.99835573648294     3.47857683400602    25.55666853158692
 14     1.21724832491156     1.49081864314544    26.66785914098598
 14    11.56385908665982     0.49693954771515    25.55666853158692
 14     3.65174497473468     4.47245592943631    26.66785914098598
