SLAB
PRIMVEC
 23.72853817895236 0.00000000000000 0.00000000000000
 33.71950162272179 8.83084750209528 0.00000000000000
 0.00000000000000 0.00000000000000 25.77391577711782
PRIMCOORD
 64 1
 14    47.76929396552253     8.03607122690671    10.38492771847452
 14    53.70142851026062     8.03607122690671    10.38492771847452
 14    17.79640363421427     0.00000000000000    10.00000000000000
 14     0.00000000000000     0.00000000000000    10.00000000000000
 14    19.04527406468545     3.62064747585907    10.38492771847452
 14    24.97740860942354     3.62064747585907    10.38492771847452
 14    22.79188535609898     4.41542375104764    10.00000000000000
 14    28.72401990083707     4.41542375104764    10.00000000000000
 14    40.27607138269546     6.44651867652956    11.15478315542356
 14    46.20820592743355     6.44651867652956    11.15478315542356
 14    44.02268267410899     7.24129495171813    10.76985543694904
 14    49.95481721884708     7.24129495171813    10.76985543694904
 14    11.55205148185839     2.03109492548192    11.15478315542356
 14    17.48418602659648     2.03109492548192    11.15478315542356
 14    15.29866277327192     2.82587120067049    10.76985543694904
 14    21.23079731801001     2.82587120067049    10.76985543694904
 14    32.78284879986840     4.85696612615241    11.92463859237261
 14    38.71498334460649     4.85696612615241    11.92463859237260
 14    36.52946009128193     5.65174240134098    11.53971087389808
 14    42.46159463602002     5.65174240134098    11.53971087389808
 14     4.05882889903132     0.44154237510477    11.92463859237261
 14     9.99096344376941     0.44154237510476    11.92463859237260
 14     7.80544019044485     1.23631865029334    11.53971087389808
 14    13.73757473518295     1.23631865029334    11.53971087389808
 14    25.28962621704134     3.26741357577526    12.69449402932165
 14    31.22176076177943     3.26741357577526    12.69449402932165
 14    29.03623750845487     4.06218985096383    12.30956631084713
 14    34.96837205319296     4.06218985096383    12.30956631084713
 14    30.28510793892605     7.68283732682290    12.69449402932165
 14    36.21724248366414     7.68283732682290    12.69449402932165
 14    34.03171923033958     8.47761360201147    12.30956631084713
 14    39.96385377507767     8.47761360201147    12.30956631084713
 14    17.79640363421427     1.67786102539811    13.46434946627069
 14    23.72853817895236     1.67786102539811    13.46434946627069
 14    21.54301492562780     2.47263730058668    13.07942174779617
 14    27.47514947036590     2.47263730058668    13.07942174779617
 14    46.52042353505135     6.09328477644575    13.46434946627069
 14    28.72401990083708     6.09328477644575    13.46434946627069
 14    26.53849664751251     6.88806105163432    13.07942174779617
 14    32.47063119225061     6.88806105163432    13.07942174779617
 14    10.30318105138721     0.08830847502095    14.23420490321973
 14    16.23531559612530     0.08830847502095    14.23420490321973
 14    14.04979234280074     0.88308475020953    13.84927718474521
 14    19.98192688753883     0.88308475020953    13.84927718474521
 14    39.02720095222429     4.50373222606860    14.23420490321973
 14    21.23079731801001     4.50373222606860    14.23420490321973
 14    42.77381224363781     5.29850850125717    13.84927718474521
 14    24.97740860942354     5.29850850125717    13.84927718474521
 14    36.52946009128193     7.32960342673909    15.00406034016877
 14    42.46159463602002     7.32960342673909    15.00406034016877
 14    40.27607138269546     8.12437970192766    14.61913262169425
 14    46.20820592743355     8.12437970192766    14.61913262169425
 14    31.53397836939722     2.91417967569145    15.00406034016877
 14    13.73757473518295     2.91417967569144    15.00406034016877
 14    35.28058966081075     3.70895595088002    14.61913262169425
 14    17.48418602659648     3.70895595088002    14.61913262169425
 14    29.03623750845487     5.74005087636194    15.77391577711782
 14    34.96837205319297     5.74005087636194    15.77391577711781
 14    32.78284879986840     6.53482715155051    15.38898805864330
 14    38.71498334460649     6.53482715155051    15.38898805864329
 14    24.04075578657016     1.32462712531430    15.77391577711781
 14     6.24435215235588     1.32462712531429    15.77391577711781
 14    27.78736707798368     2.11940340050287    15.38898805864329
 14     9.99096344376942     2.11940340050287    15.38898805864329
