CRYSTAL
PRIMVEC
 16.33110000000000 0.00000000000000 0.00000000000000
 0.00000000000000 16.33110000000000 0.00000000000000
 0.00000000000000 0.00000000000000 16.33110000000000
PRIMCOORD
 216 1
 14     4.08277500000000     4.08277500000000     1.36092500000000
 14     0.00000000000000     2.72185000000000     2.72185000000000
 14     4.08277500000000     1.36092500000000     4.08277500000000
 14     0.00000000000000     0.00000000000000     0.00000000000000
 14     1.36092500000000     4.08277500000000     4.08277500000000
 14     2.72185000000000     2.72185000000000     0.00000000000000
 14     1.36092500000000     1.36092500000000     1.36092500000000
 14     2.72185000000000     0.00000000000000     2.72185000000000
 14     4.08277500000000     4.08277500000000     6.80462500000000
 14     0.00000000000000     2.72185000000000     8.16555000000000
 14     4.08277500000000     1.36092500000000     9.52647500000000
 14     0.00000000000000     0.00000000000000     5.44370000000000
 14     1.36092500000000     4.08277500000000     9.52647500000000
 14     2.72185000000000     2.72185000000000     5.44370000000000
 14     1.36092500000000     1.36092500000000     6.80462500000000
 14     2.72185000000000     0.00000000000000     8.16555000000000
 14     4.08277500000000     4.08277500000000    12.24832500000000
 14     0.00000000000000     2.72185000000000    13.60925000000000
 14     4.08277500000000     1.36092500000000    14.97017500000000
 14     0.00000000000000     0.00000000000000    10.88740000000000
 14     1.36092500000000     4.08277500000000    14.97017500000000
 14     2.72185000000000     2.72185000000000    10.88740000000000
 14     1.36092500000000     1.36092500000000    12.24832500000000
 14     2.72185000000000     0.00000000000000    13.60925000000000
 14     4.08277500000000     9.52647500000000     1.36092500000000
 14     0.00000000000000     8.16555000000000     2.72185000000000
 14     4.08277500000000     6.80462500000000     4.08277500000000
 14     0.00000000000000     5.44370000000000     0.00000000000000
 14     1.36092500000000     9.52647500000000     4.08277500000000
 14     2.72185000000000     8.16555000000000     0.00000000000000
 14     1.36092500000000     6.80462500000000     1.36092500000000
 14     2.72185000000000     5.44370000000000     2.72185000000000
 14     4.08277500000000     9.52647500000000     6.80462500000000
 14     0.00000000000000     8.16555000000000     8.16555000000000
 14     4.08277500000000     6.80462500000000     9.52647500000000
 14     0.00000000000000     5.44370000000000     5.44370000000000
 14     1.36092500000000     9.52647500000000     9.52647500000000
 14     2.72185000000000     8.16555000000000     5.44370000000000
 14     1.36092500000000     6.80462500000000     6.80462500000000
 14     2.72185000000000     5.44370000000000     8.16555000000000
 14     4.08277500000000     9.52647500000000    12.24832500000000
 14     0.00000000000000     8.16555000000000    13.60925000000000
 14     4.08277500000000     6.80462500000000    14.97017500000000
 14     0.00000000000000     5.44370000000000    10.88740000000000
 14     1.36092500000000     9.52647500000000    14.97017500000000
 14     2.72185000000000     8.16555000000000    10.88740000000000
 14     1.36092500000000     6.80462500000000    12.24832500000000
 14     2.72185000000000     5.44370000000000    13.60925000000000
 14     4.08277500000000    14.97017500000000     1.36092500000000
 14     0.00000000000000    13.60925000000000     2.72185000000000
 14     4.08277500000000    12.24832500000000     4.08277500000000
 14     0.00000000000000    10.88740000000000     0.00000000000000
 14     1.36092500000000    14.97017500000000     4.08277500000000
 14     2.72185000000000    13.60925000000000     0.00000000000000
 14     1.36092500000000    12.24832500000000     1.36092500000000
 14     2.72185000000000    10.88740000000000     2.72185000000000
 14     4.08277500000000    14.97017500000000     6.80462500000000
 14     0.00000000000000    13.60925000000000     8.16555000000000
 14     4.08277500000000    12.24832500000000     9.52647500000000
 14     0.00000000000000    10.88740000000000     5.44370000000000
 14     1.36092500000000    14.97017500000000     9.52647500000000
 14     2.72185000000000    13.60925000000000     5.44370000000000
 14     1.36092500000000    12.24832500000000     6.80462500000000
 14     2.72185000000000    10.88740000000000     8.16555000000000
 14     4.08277500000000    14.97017500000000    12.24832500000000
 14     0.00000000000000    13.60925000000000    13.60925000000000
 14     4.08277500000000    12.24832500000000    14.97017500000000
 14     0.00000000000000    10.88740000000000    10.88740000000000
 14     1.36092500000000    14.97017500000000    14.97017500000000
 14     2.72185000000000    13.60925000000000    10.88740000000000
 14     1.36092500000000    12.24832500000000    12.24832500000000
 14     2.72185000000000    10.88740000000000    13.60925000000000
 14     9.52647500000000     4.08277500000000     1.36092500000000
 14     5.44370000000000     2.72185000000000     2.72185000000000
 14     9.52647500000000     1.36092500000000     4.08277500000000
 14     5.44370000000000     0.00000000000000     0.00000000000000
 14     6.80462500000000     4.08277500000000     4.08277500000000
 14     8.16555000000000     2.72185000000000     0.00000000000000
 14     6.80462500000000     1.36092500000000     1.36092500000000
 14     8.16555000000000     0.00000000000000     2.72185000000000
 14     9.52647500000000     4.08277500000000     6.80462500000000
 14     5.44370000000000     2.72185000000000     8.16555000000000
 14     9.52647500000000     1.36092500000000     9.52647500000000
 14     5.44370000000000     0.00000000000000     5.44370000000000
 14     6.80462500000000     4.08277500000000     9.52647500000000
 14     8.16555000000000     2.72185000000000     5.44370000000000
 14     6.80462500000000     1.36092500000000     6.80462500000000
 14     8.16555000000000     0.00000000000000     8.16555000000000
 14     9.52647500000000     4.08277500000000    12.24832500000000
 14     5.44370000000000     2.72185000000000    13.60925000000000
 14     9.52647500000000     1.36092500000000    14.97017500000000
 14     5.44370000000000     0.00000000000000    10.88740000000000
 14     6.80462500000000     4.08277500000000    14.97017500000000
 14     8.16555000000000     2.72185000000000    10.88740000000000
 14     6.80462500000000     1.36092500000000    12.24832500000000
 14     8.16555000000000     0.00000000000000    13.60925000000000
 14     9.52647500000000     9.52647500000000     1.36092500000000
 14     5.44370000000000     8.16555000000000     2.72185000000000
 14     9.52647500000000     6.80462500000000     4.08277500000000
 14     5.44370000000000     5.44370000000000     0.00000000000000
 14     6.80462500000000     9.52647500000000     4.08277500000000
 14     8.16555000000000     8.16555000000000     0.00000000000000
 14     6.80462500000000     6.80462500000000     1.36092500000000
 14     8.16555000000000     5.44370000000000     2.72185000000000
 14     9.52647500000000     9.52647500000000     6.80462500000000
 14     5.44370000000000     8.16555000000000     8.16555000000000
 14     9.52647500000000     6.80462500000000     9.52647500000000
 14     5.44370000000000     5.44370000000000     5.44370000000000
 14     6.80462500000000     9.52647500000000     9.52647500000000
 14     8.16555000000000     8.16555000000000     5.44370000000000
 14     6.80462500000000     6.80462500000000     6.80462500000000
 14     8.16555000000000     5.44370000000000     8.16555000000000
 14     9.52647500000000     9.52647500000000    12.24832500000000
 14     5.44370000000000     8.16555000000000    13.60925000000000
 14     9.52647500000000     6.80462500000000    14.97017500000000
 14     5.44370000000000     5.44370000000000    10.88740000000000
 14     6.80462500000000     9.52647500000000    14.97017500000000
 14     8.16555000000000     8.16555000000000    10.88740000000000
 14     6.80462500000000     6.80462500000000    12.24832500000000
 14     8.16555000000000     5.44370000000000    13.60925000000000
 14     9.52647500000000    14.97017500000000     1.36092500000000
 14     5.44370000000000    13.60925000000000     2.72185000000000
 14     9.52647500000000    12.24832500000000     4.08277500000000
 14     5.44370000000000    10.88740000000000     0.00000000000000
 14     6.80462500000000    14.97017500000000     4.08277500000000
 14     8.16555000000000    13.60925000000000     0.00000000000000
 14     6.80462500000000    12.24832500000000     1.36092500000000
 14     8.16555000000000    10.88740000000000     2.72185000000000
 14     9.52647500000000    14.97017500000000     6.80462500000000
 14     5.44370000000000    13.60925000000000     8.16555000000000
 14     9.52647500000000    12.24832500000000     9.52647500000000
 14     5.44370000000000    10.88740000000000     5.44370000000000
 14     6.80462500000000    14.97017500000000     9.52647500000000
 14     8.16555000000000    13.60925000000000     5.44370000000000
 14     6.80462500000000    12.24832500000000     6.80462500000000
 14     8.16555000000000    10.88740000000000     8.16555000000000
 14     9.52647500000000    14.97017500000000    12.24832500000000
 14     5.44370000000000    13.60925000000000    13.60925000000000
 14     9.52647500000000    12.24832500000000    14.97017500000000
 14     5.44370000000000    10.88740000000000    10.88740000000000
 14     6.80462500000000    14.97017500000000    14.97017500000000
 14     8.16555000000000    13.60925000000000    10.88740000000000
 14     6.80462500000000    12.24832500000000    12.24832500000000
 14     8.16555000000000    10.88740000000000    13.60925000000000
 14    14.97017500000000     4.08277500000000     1.36092500000000
 14    10.88740000000000     2.72185000000000     2.72185000000000
 14    14.97017500000000     1.36092500000000     4.08277500000000
 14    10.88740000000000     0.00000000000000     0.00000000000000
 14    12.24832500000000     4.08277500000000     4.08277500000000
 14    13.60925000000000     2.72185000000000     0.00000000000000
 14    12.24832500000000     1.36092500000000     1.36092500000000
 14    13.60925000000000     0.00000000000000     2.72185000000000
 14    14.97017500000000     4.08277500000000     6.80462500000000
 14    10.88740000000000     2.72185000000000     8.16555000000000
 14    14.97017500000000     1.36092500000000     9.52647500000000
 14    10.88740000000000     0.00000000000000     5.44370000000000
 14    12.24832500000000     4.08277500000000     9.52647500000000
 14    13.60925000000000     2.72185000000000     5.44370000000000
 14    12.24832500000000     1.36092500000000     6.80462500000000
 14    13.60925000000000     0.00000000000000     8.16555000000000
 14    14.97017500000000     4.08277500000000    12.24832500000000
 14    10.88740000000000     2.72185000000000    13.60925000000000
 14    14.97017500000000     1.36092500000000    14.97017500000000
 14    10.88740000000000     0.00000000000000    10.88740000000000
 14    12.24832500000000     4.08277500000000    14.97017500000000
 14    13.60925000000000     2.72185000000000    10.88740000000000
 14    12.24832500000000     1.36092500000000    12.24832500000000
 14    13.60925000000000     0.00000000000000    13.60925000000000
 14    14.97017500000000     9.52647500000000     1.36092500000000
 14    10.88740000000000     8.16555000000000     2.72185000000000
 14    14.97017500000000     6.80462500000000     4.08277500000000
 14    10.88740000000000     5.44370000000000     0.00000000000000
 14    12.24832500000000     9.52647500000000     4.08277500000000
 14    13.60925000000000     8.16555000000000     0.00000000000000
 14    12.24832500000000     6.80462500000000     1.36092500000000
 14    13.60925000000000     5.44370000000000     2.72185000000000
 14    14.97017500000000     9.52647500000000     6.80462500000000
 14    10.88740000000000     8.16555000000000     8.16555000000000
 14    14.97017500000000     6.80462500000000     9.52647500000000
 14    10.88740000000000     5.44370000000000     5.44370000000000
 14    12.24832500000000     9.52647500000000     9.52647500000000
 14    13.60925000000000     8.16555000000000     5.44370000000000
 14    12.24832500000000     6.80462500000000     6.80462500000000
 14    13.60925000000000     5.44370000000000     8.16555000000000
 14    14.97017500000000     9.52647500000000    12.24832500000000
 14    10.88740000000000     8.16555000000000    13.60925000000000
 14    14.97017500000000     6.80462500000000    14.97017500000000
 14    10.88740000000000     5.44370000000000    10.88740000000000
 14    12.24832500000000     9.52647500000000    14.97017500000000
 14    13.60925000000000     8.16555000000000    10.88740000000000
 14    12.24832500000000     6.80462500000000    12.24832500000000
 14    13.60925000000000     5.44370000000000    13.60925000000000
 14    14.97017500000000    14.97017500000000     1.36092500000000
 14    10.88740000000000    13.60925000000000     2.72185000000000
 14    14.97017500000000    12.24832500000000     4.08277500000000
 14    10.88740000000000    10.88740000000000     0.00000000000000
 14    12.24832500000000    14.97017500000000     4.08277500000000
 14    13.60925000000000    13.60925000000000     0.00000000000000
 14    12.24832500000000    12.24832500000000     1.36092500000000
 14    13.60925000000000    10.88740000000000     2.72185000000000
 14    14.97017500000000    14.97017500000000     6.80462500000000
 14    10.88740000000000    13.60925000000000     8.16555000000000
 14    14.97017500000000    12.24832500000000     9.52647500000000
 14    10.88740000000000    10.88740000000000     5.44370000000000
 14    12.24832500000000    14.97017500000000     9.52647500000000
 14    13.60925000000000    13.60925000000000     5.44370000000000
 14    12.24832500000000    12.24832500000000     6.80462500000000
 14    13.60925000000000    10.88740000000000     8.16555000000000
 14    14.97017500000000    14.97017500000000    12.24832500000000
 14    10.88740000000000    13.60925000000000    13.60925000000000
 14    14.97017500000000    12.24832500000000    14.97017500000000
 14    10.88740000000000    10.88740000000000    10.88740000000000
 14    12.24832500000000    14.97017500000000    14.97017500000000
 14    13.60925000000000    13.60925000000000    10.88740000000000
 14    12.24832500000000    12.24832500000000    12.24832500000000
 14    13.60925000000000    10.88740000000000    13.60925000000000
