SLAB
PRIMVEC
 3.83958982184295 0.00000000000000 0.00000000000000
 0.00000000000000 3.83958982184295 0.00000000000000
 0.00000000000000 0.00000000000000 31.22250000000000
PRIMCOORD
 24 1
 14     1.91979491092148     1.91979491092148     0.00000000000000
 14     0.00000000000000     1.91979491092148     1.35750000000000
 14     0.00000000000000     0.00000000000000     2.71500000000000
 14     1.91979491092148     0.00000000000000     4.07250000000000
 14     1.91979491092148     1.91979491092148     5.43000000000000
 14     0.00000000000000     1.91979491092148     6.78750000000000
 14     0.00000000000000     0.00000000000000     8.14500000000000
 14     1.91979491092148     0.00000000000000     9.50250000000000
 14     1.91979491092148     1.91979491092148    10.86000000000000
 14     0.00000000000000     1.91979491092148    12.21750000000000
 14     0.00000000000000     0.00000000000000    13.57500000000000
 14     1.91979491092148     0.00000000000000    14.93250000000000
 14     1.91979491092148     1.91979491092148    16.29000000000000
 14     0.00000000000000     1.91979491092148    17.64750000000000
 14     0.00000000000000     0.00000000000000    19.00500000000000
 14     1.91979491092148     0.00000000000000    20.36250000000000
 14     1.91979491092148     1.91979491092148    21.72000000000000
 14     0.00000000000000     1.91979491092148    23.07750000000000
 14     0.00000000000000     0.00000000000000    24.43500000000000
 14     1.91979491092148     0.00000000000000    25.79250000000000
 14     1.91979491092148     1.91979491092148    27.15000000000000
 14     0.00000000000000     1.91979491092148    28.50750000000000
 14     0.00000000000000     0.00000000000000    29.86500000000000
 14     1.91979491092148     0.00000000000000    31.22250000000000
