CRYSTAL
PRIMVEC
 3.83958982184295 0.00000000000000 0.00000000000000
 0.00000000000000 3.83958982184295 0.00000000000000
 0.00000000000000 0.00000000000000 51.22250000000000
PRIMCOORD
 24 1
 14     1.91979491092148     1.91979491092148    10.00000000000000
 14     0.00000000000000     1.91979491092148    11.35750000000000
 14     0.00000000000000     0.00000000000000    12.71500000000000
 14     1.91979491092148     0.00000000000000    14.07250000000000
 14     1.91979491092148     1.91979491092148    15.43000000000000
 14     0.00000000000000     1.91979491092148    16.78750000000000
 14     0.00000000000000     0.00000000000000    18.14500000000000
 14     1.91979491092148     0.00000000000000    19.50250000000000
 14     1.91979491092148     1.91979491092148    20.86000000000000
 14     0.00000000000000     1.91979491092148    22.21750000000000
 14     0.00000000000000     0.00000000000000    23.57500000000000
 14     1.91979491092148     0.00000000000000    24.93250000000000
 14     1.91979491092148     1.91979491092148    26.29000000000000
 14     0.00000000000000     1.91979491092148    27.64750000000000
 14     0.00000000000000     0.00000000000000    29.00500000000000
 14     1.91979491092148     0.00000000000000    30.36250000000000
 14     1.91979491092148     1.91979491092148    31.72000000000000
 14     0.00000000000000     1.91979491092148    33.07750000000000
 14     0.00000000000000     0.00000000000000    34.43500000000000
 14     1.91979491092148     0.00000000000000    35.79250000000000
 14     1.91979491092148     1.91979491092148    37.15000000000000
 14     0.00000000000000     1.91979491092148    38.50750000000000
 14     0.00000000000000     0.00000000000000    39.86499999999999
 14     1.91979491092148     0.00000000000000    41.22250000000000
