CRYSTAL
PRIMVEC
 0.00000000000000 2.71500000000000 2.71500000000000
 2.71500000000000 0.00000000000000 2.71500000000000
 2.71500000000000 2.71500000000000 0.00000000000000
PRIMCOORD
 2 1
 14     0.00000000000000     0.00000000000000     0.00000000000000
 14     1.35750000000000     1.35750000000000     1.35750000000000
