CRYSTAL
PRIMVEC
 9.04000000000000 0.00000000000000 0.00000000000000
 0.00000000000000 9.04000000000000 0.00000000000000
 0.00000000000000 0.00000000000000 9.04000000000000
PRIMCOORD
 32 1
 27     2.26000000000000     2.26000000000000     2.26000000000000
 27     6.78000000000000     6.78000000000000     2.26000000000000
 27     6.78000000000000     2.26000000000000     6.78000000000000
 27     2.26000000000000     6.78000000000000     6.78000000000000
 27     6.78000000000000     6.78000000000000     6.78000000000000
 27     2.26000000000000     2.26000000000000     6.78000000000000
 27     2.26000000000000     6.78000000000000     2.26000000000000
 27     6.78000000000000     2.26000000000000     2.26000000000000
 51     0.00000000000000     3.02840000000000     1.42832000000000
 51     0.00000000000000     6.01160000000000     1.42832000000000
 51     0.00000000000000     3.02840000000000     7.61168000000000
 51     0.00000000000000     6.01160000000000     7.61168000000000
 51     1.42832000000000     0.00000000000000     3.02840000000000
 51     1.42832000000000     0.00000000000000     6.01160000000000
 51     7.61168000000000     0.00000000000000     3.02840000000000
 51     7.61168000000000     0.00000000000000     6.01160000000000
 51     3.02840000000000     1.42832000000000     0.00000000000000
 51     6.01160000000000     1.42832000000000     0.00000000000000
 51     3.02840000000000     7.61168000000000     0.00000000000000
 51     6.01160000000000     7.61168000000000     0.00000000000000
 51     4.52000000000000     7.54840000000000     5.94832000000000
 51     4.52000000000000     1.49160000000000     5.94832000000000
 51     4.52000000000000     7.54840000000000     3.09168000000000
 51     4.52000000000000     1.49160000000000     3.09168000000000
 51     5.94832000000000     4.52000000000000     7.54840000000000
 51     5.94832000000000     4.52000000000000     1.49160000000000
 51     3.09168000000000     4.52000000000000     7.54840000000000
 51     3.09168000000000     4.52000000000000     1.49160000000000
 51     7.54840000000000     5.94832000000000     4.52000000000000
 51     1.49160000000000     5.94832000000000     4.52000000000000
 51     7.54840000000000     3.09168000000000     4.52000000000000
 51     1.49160000000000     3.09168000000000     4.52000000000000
