CRYSTAL
PRIMVEC
    3.839590     0.000000     0.000000
    0.000000     3.839590     0.000000
    0.000000     0.000000    61.467000
CONVVEC
    3.839590     0.000000     0.000000
    0.000000     3.839590     0.000000
    0.000000     0.000000    61.467000
PRIMCOORD
24 1
14     1.919795     1.919795    12.000000
14     0.000000     1.919795    13.629000
14     0.000000     0.000000    15.258000
14     1.919795     0.000000    16.887000
14     1.919795     1.919795    18.516000
14     0.000000     1.919795    20.145000
14     0.000000     0.000000    21.774000
14     1.919795     0.000000    23.403000
14     1.919795     1.919795    25.032000
14     0.000000     1.919795    26.661000
14     0.000000     0.000000    28.290000
14     1.919795     0.000000    29.919000
14     1.919795     1.919795    31.548000
14     0.000000     1.919795    33.177000
14     0.000000     0.000000    34.806000
14     1.919795     0.000000    36.435000
14     1.919795     1.919795    38.064000
14     0.000000     1.919795    39.693000
14     0.000000     0.000000    41.322000
14     1.919795     0.000000    42.951000
14     1.919795     1.919795    44.580000
14     0.000000     1.919795    46.209000
14     0.000000     0.000000    47.838000
14     1.919795     0.000000    49.467000
