CRYSTAL
PRIMVEC
   10.000000000     0.000000000     0.000000000
    0.000000000    10.000000000     0.000000000
    0.000000000     0.000000000    22.400000000
PRIMCOORD
 16 1
  6    5.000000000     5.000000000     0.000000000
  6    5.000000000     5.000000000     1.400000000
  6    5.000000000     5.000000000     2.800000000
  6    5.000000000     5.000000000     4.200000000
  6    5.000000000     5.000000000     5.600000000
  6    5.000000000     5.000000000     7.000000000
  6    5.000000000     5.000000000     8.400000000
  6    5.000000000     5.000000000     9.800000000
  6    5.000000000     5.000000000    11.200000000
  6    5.000000000     5.000000000    12.600000000
  6    5.000000000     5.000000000    14.000000000
  6    5.000000000     5.000000000    15.400000000
  6    5.000000000     5.000000000    16.800000000
  6    5.000000000     5.000000000    18.200000000
  6    5.000000000     5.000000000    19.600000000
  6    5.000000000     5.000000000    21.000000000
